<LesHouchesEvents version="3.0">
<!--
file generated with POWHEG-BOX-V2
Input file powheg.input contained:
! ggHH production parameters:
mtdep 2              ! 0: Higgs effective field theory (HEFT)

hmass 125            ! Higgs boson mass
topmass 173          ! top quark mass (THIS VALUE IS HARD CODED IN THE VIRTUAL
hdecaymode -1        ! PDG code for Higgs boson decay products (it affects only the SMC)
!                      allowed values are:
!                      0 all decay channels open
!                      1-6 d dbar, u ubar,..., t tbar (as in HERWIG)
!                      7-9 e+ e-, mu+ mu-, tau+ tau-
!                      10  W+W-
!                      11  ZZ
!                      12  gamma gamma
!                      -1  all decay channels closed

! general parameters:
numevts  3000        ! number of events to be generated
ih1         1        ! hadron 1 (1 for protons, -1 for antiprotons)
ih2         1        ! hadron 2 (1 for protons, -1 for antiprotons)
ebeam1 7000d0        ! energy of beam 1
ebeam2 7000d0        ! energy of beam 2
! To be set only if using LHA pdfs
lhans1 90200         ! pdf set for hadron 1 (LHA numbering)
lhans2 90200 	     ! pdf set for hadron 2 (LHA numbering)
! To be set only if using internal mlm pdf
# ndns1 131          ! pdf set for hadron 1 (mlm numbering)
# ndns2 131          ! pdf set for hadron 2 (mlm numbering)
! To be set only if using different pdf sets for the two incoming hadrons
! QCDLambda5 0.25    ! for not equal pdf sets

! Parameters to allow or not the use of stored data
use-old-grid    1    ! if 1 use old grid if file pwggrids.dat is present (<> 1 regenerate)
use-old-ubound  1    ! if 1 use norm of upper bounding function stored in pwgubound.dat, if present;
!
ncall1  10000        ! number of calls for initializing the integration grid
itmx1       3        ! number of iterations for initializing the integration grid
ncall2  10000        ! number of calls for computing the integral and finding upper bound
itmx2       3        ! number of iterations for computing the integral and finding upper bound
foldcsi     1        ! number of folds on csi integration
foldy       1        ! number of folds on  y  integration
foldphi     1        ! number of folds on phi integration
nubound 10000        ! number of bbarra calls to setup norm of upper bounding function
# icsimax   1        ! <= 100, number of csi subdivision when computing the upper bounds
# iymax     1        ! <= 100, number of y subdivision when computing the upper bounds
# xupbound 2d0       ! increase upper bound for radiation generation

! OPTIONAL PARAMETERS

! scale settings:
#fixedscale   1      ! (dafault 0) Use muren = mufac = 2*m_H
facscfact   1d0      ! (default 1d0) fac scale factor: mufact = muref * facscfact
renscfact   1d0      ! (default 1d0) ren scale factor: muren  = muref * renscfact

! Born, plots and powheg strategy:
#bornonly         1  ! (default 0) if 1 do Born only
# testplots 1
fastbtlbound      1  ! fast evaluation of Btilde upper bounds
storemintupb      1  ! store function calls in binary file for more precise generation
ubexcess_correct  1  ! corrects for error in upper bound estimate
storeinfo_rwgt    1  ! store info to allow for reweighting
softtest          0  ! no check of the soft limit in the real
colltest          0  ! no check of the collinear limit in the real

! PARAMETERS needed for ggHH
hdamp           250

! PARAMETERS for parallel runnning
! -- non parallel (for testing purposes only)
#iseed    547        !  Start the random number generator with seed iseed
#rand1     0         !  skipping  rand2*100000000+rand1 numbers.
#rand2     0         !  (see RM48 short writeup in CERNLIB)

! -- parallel
manyseeds 1          ! Used to perform multiple runs with different random
                     ! seeds in the same directory.
                     ! If set to 1, the program asks for an integer j;
                     ! The file pwgseeds.dat at line j is read, and the
                     ! integer at line j is used to initialize the random
                     ! sequence for the generation of the event.
                     ! The event file is called pwgevents-'j'.lhe
parallelstage 4
xgriditeration 1
maxseeds    1000

! PARAMETERS for reweighting
#rwl_file 'reweight_setup.xml'


! PARAMETERS for Pythia8
#py8tune  xxx
#py8hepmc 1
#py8nohad 1
#py8nompi 1
End of powheg.input content
PDF package: lha
 Random number generator initialized with:            8             0             0
-->
<init>
     2212     2212  7.00000E+03  7.00000E+03     -1     -1     -1     -1     -4      1
  3.38081E-02  5.61572E-05  1.00000E+00   9999
</init>
<event>
      5   9999  3.79277E-02  3.39940E+01 -1.00000E+00  1.49363E-01
      21    -1     0     0   511   501  0.000000000E+00  0.000000000E+00  3.123305576E+02  3.123305576E+02  0.000000000E+00  0.00000E+00  9.000E+00
      21    -1     0     0   501   502  0.000000000E+00  0.000000000E+00 -1.972386464E+02  1.972386464E+02  0.000000000E+00  0.00000E+00  9.000E+00
      25     1     1     2     0     0 -6.183268211E+01 -9.734233706E+01 -8.246251341E+00  1.702698206E+02  1.250000000E+02  0.00000E+00  9.000E+00
      25     1     1     2     0     0  8.314966267E+01  1.238220724E+02 -1.658164923E+01  1.953093011E+02  1.250000000E+02  0.00000E+00  9.000E+00
      21     1     1     2   511   502 -2.131698057E+01 -2.647973533E+01  1.399198118E+02  1.439900822E+02  0.000000000E+00  0.00000E+00  9.000E+00
#rwgt            1           1   3.3103411475727901E-002           8          76           0
</event>
<event>
      5   9999  3.79277E-02  5.23519E+01 -1.00000E+00  1.37946E-01
      21    -1     0     0   502   512  0.000000000E+00  0.000000000E+00  2.116892270E+02  2.116892270E+02  0.000000000E+00  0.00000E+00  9.000E+00
      21    -1     0     0   501   502  0.000000000E+00  0.000000000E+00 -5.481721717E+02  5.481721717E+02  0.000000000E+00  0.00000E+00  9.000E+00
      25     1     1     2     0     0 -1.913010720E+02  1.078214253E+02  4.088369131E+00  2.527118412E+02  1.250000000E+02  0.00000E+00  9.000E+00
      25     1     1     2     0     0  1.420030711E+02 -9.020258076E+01 -3.850889305E+02  4.384288564E+02  1.250000000E+02  0.00000E+00  9.000E+00
      21     1     1     2   501   512  4.929800092E+01 -1.761884458E+01  4.451761657E+01  6.872070113E+01  1.581489940E-06  0.00000E+00  9.000E+00
#rwgt            1           1   2.6751985971914978E-002           8         210           0
</event>
<event>
      5   9999  3.79277E-02  6.70806E+01 -1.00000E+00  1.32165E-01
      21    -1     0     0   502   501  0.000000000E+00  0.000000000E+00  1.133802722E+02  1.133802722E+02  0.000000000E+00  0.00000E+00  9.000E+00
      21    -1     0     0   511   502  0.000000000E+00  0.000000000E+00 -1.151893227E+03  1.151893227E+03  0.000000000E+00  0.00000E+00  9.000E+00
      25     1     1     2     0     0 -6.092829402E+01 -1.609284581E+02 -4.424001915E+01  2.172381295E+02  1.250000000E+02  0.00000E+00  9.000E+00
      25     1     1     2     0     0 -2.037529647E+00  1.377960508E+02 -3.178989601E+02  3.683431172E+02  1.250000000E+02  0.00000E+00  9.000E+00
      21     1     1     2   511   501  6.296582366E+01  2.313240727E+01 -6.763739756E+02  6.796922525E+02  7.629394531E-06  0.00000E+00  9.000E+00
#rwgt            1           1   3.7523604331827110E-002           8         375           0
</event>
<event>
      5   9999  3.79277E-02  3.66908E+01 -1.00000E+00  1.47205E-01
      21    -1     0     0   502   501  0.000000000E+00  0.000000000E+00  3.653742030E+02  3.653742030E+02  0.000000000E+00  0.00000E+00  9.000E+00
      21    -1     0     0   501   512  0.000000000E+00  0.000000000E+00 -1.880930867E+02  1.880930867E+02  0.000000000E+00  0.00000E+00  9.000E+00
      25     1     1     2     0     0 -1.845789432E+02  9.899682055E+01  7.296526852E+01  2.545951436E+02  1.250000000E+02  0.00000E+00  9.000E+00
      25     1     1     2     0     0  1.941857442E+02 -6.358598224E+01  1.064443993E+02  2.621196111E+02  1.250000000E+02  0.00000E+00  9.000E+00
      21     1     1     2   502   512 -9.606801022E+00 -3.541083831E+01 -2.128551529E+00  3.675253498E+01  4.267043192E-07  0.00000E+00  9.000E+00
#rwgt            1           1   4.6030942977289734E-002           8         515           0
</event>
<event>
      5   9999  3.79277E-02  2.89530E+02 -1.00000E+00  1.06096E-01
       1    -1     0     0   502     0  0.000000000E+00  0.000000000E+00  7.609037869E+02  7.609037869E+02  0.000000000E+00  0.00000E+00  9.000E+00
      21    -1     0     0   501   502  0.000000000E+00  0.000000000E+00 -6.012084284E+02  6.012084284E+02  0.000000000E+00  0.00000E+00  9.000E+00
      25     1     1     2     0     0 -2.222838774E+02 -3.390930162E+02 -2.547587837E+01  4.250508395E+02  1.250000000E+02  0.00000E+00  9.000E+00
      25     1     1     2     0     0  8.024293416E+01  8.680011629E+01 -3.151237865E+02  3.590281180E+02  1.250000000E+02  0.00000E+00  9.000E+00
       1     1     1     2   501     0  1.420409432E+02  2.522928999E+02  5.002950233E+02  5.780332579E+02  7.629394531E-06  0.00000E+00  9.000E+00
#rwgt            1           1   4.3342405643927953E-002           8         666           0
</event>
<event>
      5   9999  3.79277E-02  1.57355E+01 -1.00000E+00  1.75447E-01
      21    -1     0     0   502   511  0.000000000E+00  0.000000000E+00  1.292709789E+02  1.292709789E+02  0.000000000E+00  0.00000E+00  9.000E+00
      21    -1     0     0   501   502  0.000000000E+00  0.000000000E+00 -1.068575425E+03  1.068575425E+03  0.000000000E+00  0.00000E+00  9.000E+00
      25     1     1     2     0     0  1.884242728E+02  2.783251582E+02 -6.046508821E+02  7.029909597E+02  1.250000000E+02  0.00000E+00  9.000E+00
      25     1     1     2     0     0 -1.755806701E+02 -2.692341394E+02 -3.323464902E+02  4.789517545E+02  1.250000000E+02  0.00000E+00  9.000E+00
      21     1     1     2   501   511 -1.284360265E+01 -9.091018744E+00 -2.307073705E+00  1.590368951E+01  1.228781231E-07  0.00000E+00  9.000E+00
#rwgt            1           1  0.17936897549211914                8         823           0
</event>
<event>
      5   9999  3.79277E-02  2.25175E+01 -1.00000E+00  1.62230E-01
      21    -1     0     0   502   512  0.000000000E+00  0.000000000E+00  4.825496626E+02  4.825496626E+02  0.000000000E+00  0.00000E+00  9.000E+00
      21    -1     0     0   501   502  0.000000000E+00  0.000000000E+00 -1.577907824E+02  1.577907824E+02  0.000000000E+00  0.00000E+00  9.000E+00
      25     1     1     2     0     0 -1.602845587E+01 -4.395227419E+01 -1.110618575E+02  1.736330902E+02  1.250000000E+02  0.00000E+00  9.000E+00
      25     1     1     2     0     0  9.603313228E+00  6.553362404E+01  4.011852929E+02  4.253957202E+02  1.250000000E+02  0.00000E+00  9.000E+00
      21     1     1     2   501   512  6.425142640E+00 -2.158134985E+01  3.463544479E+01  4.131163462E+01  6.743495762E-07  0.00000E+00  9.000E+00
#rwgt            1           1   3.6513486302817581E-002           8        1096           0
</event>
<event>
      5   9999  3.79277E-02  6.89511E+01 -1.00000E+00  1.31554E-01
      21    -1     0     0   502   511  0.000000000E+00  0.000000000E+00  2.203977826E+02  2.203977826E+02  0.000000000E+00  0.00000E+00  9.000E+00
      21    -1     0     0   501   502  0.000000000E+00  0.000000000E+00 -2.898844178E+02  2.898844178E+02  0.000000000E+00  0.00000E+00  9.000E+00
      25     1     1     2     0     0 -1.144507856E+02  9.811197973E+01 -1.635357910E+02  2.551350580E+02  1.250000000E+02  0.00000E+00  9.000E+00
      25     1     1     2     0     0  6.802307175E+01 -4.713438207E+01  1.562903463E+01  1.507250974E+02  1.250000000E+02  0.00000E+00  9.000E+00
      21     1     1     2   501   511  4.642771381E+01 -5.097759766E+01  7.842012124E+01  1.044220450E+02  1.907348633E-06  0.00000E+00  9.000E+00
#rwgt            2          11   1.5214620056437787E-003           8        1650           0
</event>
<event>
      5   9999  3.79277E-02  2.70421E+01 -1.00000E+00  1.56238E-01
      21    -1     0     0   502   501  0.000000000E+00  0.000000000E+00  6.312993231E+02  6.312993231E+02  0.000000000E+00  0.00000E+00  9.000E+00
      21    -1     0     0   501   512  0.000000000E+00  0.000000000E+00 -4.472293842E+02  4.472293842E+02  0.000000000E+00  0.00000E+00  9.000E+00
      25     1     1     2     0     0 -1.910026261E+01 -1.578889303E+02  5.743564162E+01  2.102797833E+02  1.250000000E+02  0.00000E+00  9.000E+00
      25     1     1     2     0     0 -6.930980152E-01  1.763144708E+02  4.734140898E+02  5.204163462E+02  1.250000000E+02  0.00000E+00  9.000E+00
      21     1     1     2   502   512  1.979336062E+01 -1.842554052E+01 -3.467797925E+02  3.478325778E+02  5.394796609E-06  0.00000E+00  9.000E+00
#rwgt            2          11   2.8908644937596533E-003           8        1670           0
</event>
<event>
      5   9999  3.79277E-02  1.24499E+01 -1.00000E+00  1.85363E-01
      21    -1     0     0   502   501  0.000000000E+00  0.000000000E+00  3.811633794E+02  3.811633794E+02  0.000000000E+00  0.00000E+00  9.000E+00
      21    -1     0     0   501   511  0.000000000E+00  0.000000000E+00 -1.181760168E+03  1.181760168E+03  0.000000000E+00  0.00000E+00  9.000E+00
      25     1     1     2     0     0 -6.370701215E+01  2.218132610E+02 -3.220983411E+02  4.154901292E+02  1.250000000E+02  0.00000E+00  9.000E+00
      25     1     1     2     0     0  6.489463692E+01 -2.342063774E+02  2.785810037E+02  3.902516070E+02  1.250000000E+02  0.00000E+00  9.000E+00
      21     1     1     2   502   511 -1.187624771E+00  1.239311632E+01 -7.570794509E+02  7.571818109E+02  1.078959322E-05  0.00000E+00  9.000E+00
#rwgt            1           1   5.8530133419718605E-002           8        1735           0
</event>
<event>
      5   9999 -3.79277E-02  1.68457E+02 -1.00000E+00  1.14431E-01
      21    -1     0     0   512   501  0.000000000E+00  0.000000000E+00  4.145063510E+02  4.145063510E+02  0.000000000E+00  0.00000E+00  9.000E+00
      21    -1     0     0   501   502  0.000000000E+00  0.000000000E+00 -6.255772591E+02  6.255772591E+02  0.000000000E+00  0.00000E+00  9.000E+00
      25     1     1     2     0     0  1.740434018E+02  1.665008522E+02 -1.660069136E+02  3.181146568E+02  1.250000000E+02  0.00000E+00  9.000E+00
      25     1     1     2     0     0 -2.903239393E+01 -2.522312460E+02 -3.025476521E+02  4.142747436E+02  1.250000000E+02  0.00000E+00  9.000E+00
      21     1     1     2   512   502 -1.450110079E+02  8.573039387E+01  2.574836575E+02  3.076942098E+02  0.000000000E+00  0.00000E+00  9.000E+00
#rwgt            1           1 -0.10381351283711462                8        2109           0
</event>
<event>
      5   9999  3.79277E-02  6.25766E+01 -1.00000E+00  1.33735E-01
      21    -1     0     0   511   501  0.000000000E+00  0.000000000E+00  1.802864374E+03  1.802864374E+03  0.000000000E+00  0.00000E+00  9.000E+00
      21    -1     0     0   501   502  0.000000000E+00  0.000000000E+00 -2.353401779E+02  2.353401779E+02  0.000000000E+00  0.00000E+00  9.000E+00
      25     1     1     2     0     0 -1.204825528E+02  3.353432238E+01 -6.684903512E+00  1.769471227E+02  1.250000000E+02  0.00000E+00  9.000E+00
      25     1     1     2     0     0  7.173915026E+01 -7.277599528E+01 -9.734600695E+01  1.885314198E+02  1.250000000E+02  0.00000E+00  9.000E+00
      21     1     1     2   511   502  4.874340253E+01  3.924167290E+01  1.671555106E+03  1.672726009E+03  0.000000000E+00  0.00000E+00  9.000E+00
#rwgt            1           1   3.8114557779326236E-002           8        2200           0
</event>
<event>
      5   9999  3.79277E-02  8.32558E+01 -1.00000E+00  1.27517E-01
      21    -1     0     0   512   501  0.000000000E+00  0.000000000E+00  1.379391643E+02  1.379391643E+02  0.000000000E+00  0.00000E+00  9.000E+00
      21    -1     0     0   501   502  0.000000000E+00  0.000000000E+00 -2.755187498E+03  2.755187498E+03  0.000000000E+00  0.00000E+00  9.000E+00
      25     1     1     2     0     0 -1.893743690E+02  1.116210489E+02 -9.155727767E+02  9.498528410E+02  1.250000000E+02  0.00000E+00  9.000E+00
      25     1     1     2     0     0  1.327681170E+02 -5.056981205E+01 -1.802563355E+03  1.812469124E+03  1.250000000E+02  0.00000E+00  9.000E+00
      21     1     1     2   512   502  5.660625201E+01 -6.105123684E+01  1.008877972E+02  1.308046975E+02  5.560829062E-06  0.00000E+00  9.000E+00
#rwgt            1           1   3.6302096944294433E-002           8        2278           0
</event>
<event>
      5   9999  3.79277E-02  2.75711E+01 -1.00000E+00  1.55631E-01
       1    -1     0     0   502     0  0.000000000E+00  0.000000000E+00  3.163370165E+03  3.163370165E+03  0.000000000E+00  0.00000E+00  9.000E+00
      21    -1     0     0   501   502  0.000000000E+00  0.000000000E+00 -6.835829244E+01  6.835829244E+01  0.000000000E+00  0.00000E+00  9.000E+00
      25     1     1     2     0     0 -6.820817877E+01  4.512494232E+01  3.139644582E+02  3.476885058E+02  1.250000000E+02  0.00000E+00  9.000E+00
      25     1     1     2     0     0  6.778734458E+01 -7.269281222E+01  7.255941142E+01  1.754116222E+02  1.250000000E+02  0.00000E+00  9.000E+00
       1     1     1     2   501     0  4.208341884E-01  2.756786991E+01  2.708488003E+03  2.708628329E+03  3.051757812E-05  0.00000E+00  9.000E+00
#rwgt            1           1   4.6899967608718368E-002           8        2352           0
</event>
<event>
      5   9999  3.79277E-02  2.21217E+01 -1.00000E+00  1.62835E-01
      21    -1     0     0   502   501  0.000000000E+00  0.000000000E+00  6.046242683E+01  6.046242683E+01  0.000000000E+00  0.00000E+00  9.000E+00
      21    -1     0     0   501   511  0.000000000E+00  0.000000000E+00 -9.019864162E+02  9.019864162E+02  0.000000000E+00  0.00000E+00  9.000E+00
      25     1     1     2     0     0 -9.009798588E+01  1.679368787E+01 -7.535735364E+01  1.723467602E+02  1.250000000E+02  0.00000E+00  9.000E+00
      25     1     1     2     0     0  1.120205956E+02 -1.975482151E+01 -6.361958562E+02  6.582621319E+02  1.250000000E+02  0.00000E+00  9.000E+00
      21     1     1     2   502   511 -2.192260974E+01  2.961133637E+00 -1.299707795E+02  1.318399509E+02  0.000000000E+00  0.00000E+00  9.000E+00
#rwgt            1           1   3.9209898809365519E-002           8        2436           0
</event>
<event>
      5   9999  3.79277E-02  7.16562E+01 -1.00000E+00  1.30708E-01
      21    -1     0     0   502   501  0.000000000E+00  0.000000000E+00  3.270335880E+02  3.270335880E+02  0.000000000E+00  0.00000E+00  9.000E+00
       1    -1     0     0   501     0  0.000000000E+00  0.000000000E+00 -5.635358017E+02  5.635358017E+02  0.000000000E+00  0.00000E+00  9.000E+00
      25     1     1     2     0     0  2.327752693E+02 -7.910780863E+01 -1.935683414E+02  3.369511451E+02  1.250000000E+02  0.00000E+00  9.000E+00
      25     1     1     2     0     0 -1.756998604E+02  3.578327514E+01  2.024845442E+02  2.979528056E+02  1.250000000E+02  0.00000E+00  9.000E+00
       1     1     1     2   502     0 -5.707540892E+01  4.332453349E+01 -2.454184166E+02  2.556654390E+02  2.697398305E-06  0.00000E+00  9.000E+00
#rwgt            1           1   4.3814982978776368E-002           8        2642           0
</event>
<event>
      5   9999  3.79277E-02  3.82363E+01 -1.00000E+00  1.46065E-01
      21    -1     0     0   511   501  0.000000000E+00  0.000000000E+00  3.395932607E+02  3.395932607E+02  0.000000000E+00  0.00000E+00  9.000E+00
      21    -1     0     0   501   502  0.000000000E+00  0.000000000E+00 -1.957793334E+02  1.957793334E+02  0.000000000E+00  0.00000E+00  9.000E+00
      25     1     1     2     0     0 -8.181769600E+01 -1.298246952E+02 -5.429787092E+01  2.052360730E+02  1.250000000E+02  0.00000E+00  9.000E+00
      25     1     1     2     0     0  5.288847700E+01  1.048223729E+02  5.214638586E+01  1.792461057E+02  1.250000000E+02  0.00000E+00  9.000E+00
      21     1     1     2   511   502  2.892921900E+01  2.500232237E+01  1.459654124E+02  1.508904154E+02  2.697398305E-06  0.00000E+00  9.000E+00
#rwgt            1           1   4.4139948368130885E-002           8        2816           0
</event>
<event>
      5   9999  3.79277E-02  4.38426E+01 -1.00000E+00  1.42412E-01
      21    -1     0     0   502   501  0.000000000E+00  0.000000000E+00  1.293092351E+03  1.293092351E+03  0.000000000E+00  0.00000E+00  9.000E+00
      21    -1     0     0   501   512  0.000000000E+00  0.000000000E+00 -1.096067417E+03  1.096067417E+03  0.000000000E+00  0.00000E+00  9.000E+00
      25     1     1     2     0     0 -1.310833899E+02 -2.723377542E+02 -1.874635821E+00  3.270767826E+02  1.250000000E+02  0.00000E+00  9.000E+00
      25     1     1     2     0     0  1.011772993E+02  2.402784789E+02  1.111469826E+03  1.148460173E+03  1.250000000E+02  0.00000E+00  9.000E+00
      21     1     1     2   502   512  2.990609059E+01  3.205927530E+01 -9.125702563E+02  9.136228128E+02  0.000000000E+00  0.00000E+00  9.000E+00
#rwgt            1           1  0.10164558666058501                8        3016           0
</event>
<event>
      5   9999 -3.79277E-02  1.95437E+01 -1.00000E+00  1.67200E-01
      21    -1     0     0   502   501  0.000000000E+00  0.000000000E+00  6.518852505E+01  6.518852505E+01  0.000000000E+00  0.00000E+00  9.000E+00
       1    -1     0     0   501     0  0.000000000E+00  0.000000000E+00 -2.482385729E+03  2.482385729E+03  0.000000000E+00  0.00000E+00  9.000E+00
      25     1     1     2     0     0  2.225449892E+02 -1.830617246E+02 -9.950543803E+02  1.043453922E+03  1.250000000E+02  0.00000E+00  9.000E+00
      25     1     1     2     0     0 -2.414204445E+02  1.881285049E+02 -6.277452707E+02  7.094824101E+02  1.250000000E+02  0.00000E+00  9.000E+00
       1     1     1     2   502     0  1.887545535E+01 -5.066780305E+00 -7.943975525E+02  7.946379216E+02  1.525878906E-05  0.00000E+00  9.000E+00
#rwgt            1           1  -2.2027146957360137E-002           8        3240           0
</event>
<event>
      5   9999  3.79277E-02  8.50847E+01 -1.00000E+00  1.27067E-01
      21    -1     0     0   502   501  0.000000000E+00  0.000000000E+00  4.601912331E+02  4.601912331E+02  0.000000000E+00  0.00000E+00  9.000E+00
      21    -1     0     0   501   511  0.000000000E+00  0.000000000E+00 -2.020738953E+02  2.020738953E+02  0.000000000E+00  0.00000E+00  9.000E+00
      25     1     1     2     0     0 -1.403832772E+02  1.320607396E+01  2.063914519E+02  2.794714589E+02  1.250000000E+02  0.00000E+00  9.000E+00
      25     1     1     2     0     0  1.526554107E+02 -9.740112080E+01  1.395152966E+02  2.605382328E+02  1.250000000E+02  0.00000E+00  9.000E+00
      21     1     1     2   502   511 -1.227213350E+01  8.419504684E+01 -8.778941074E+01  1.222554367E+02  1.348699152E-06  0.00000E+00  9.000E+00
#rwgt            1           1   3.5302344184600765E-002           8        3565           0
</event>
<event>
      5   9999  3.79277E-02  1.11969E+01 -1.00000E+00  1.90247E-01
      21    -1     0     0   512   501  0.000000000E+00  0.000000000E+00  3.652816619E+02  3.652816619E+02  0.000000000E+00  0.00000E+00  9.000E+00
      21    -1     0     0   501   502  0.000000000E+00  0.000000000E+00 -1.223156426E+02  1.223156426E+02  0.000000000E+00  0.00000E+00  9.000E+00
      25     1     1     2     0     0  3.800771054E+01 -1.303590558E+02  2.543813073E+01  1.863066504E+02  1.250000000E+02  0.00000E+00  9.000E+00
      25     1     1     2     0     0 -4.209023737E+01  1.407851856E+02  1.865920732E+02  2.683908686E+02  1.250000000E+02  0.00000E+00  9.000E+00
      21     1     1     2   512   502  4.082526829E+00 -1.042612977E+01  3.093581536E+01  3.289978540E+01  3.371747881E-07  0.00000E+00  9.000E+00
#rwgt            1           1   2.8999060501177908E-002           8        3679           0
</event>
<event>
      5   9999  3.79277E-02  2.14265E+02 -1.00000E+00  1.10570E-01
      21    -1     0     0   502   511  0.000000000E+00  0.000000000E+00  1.963790337E+02  1.963790337E+02  0.000000000E+00  0.00000E+00  9.000E+00
      21    -1     0     0   501   502  0.000000000E+00  0.000000000E+00 -1.304099903E+03  1.304099903E+03  0.000000000E+00  0.00000E+00  9.000E+00
      25     1     1     2     0     0 -9.070700573E+01 -4.778929612E+01 -7.731864231E+02  7.899074772E+02  1.250000000E+02  0.00000E+00  9.000E+00
      25     1     1     2     0     0  3.049240856E+02  4.324560911E+01 -3.655585741E+02  4.940718083E+02  1.250000000E+02  0.00000E+00  9.000E+00
      21     1     1     2   501   511 -2.142170799E+02  4.543687006E+00  3.102412794E+01  2.164996511E+02  1.877309769E-06  0.00000E+00  9.000E+00
#rwgt            1           1   3.7240570268617448E-002           8        3938           0
</event>
<event>
      5   9999  3.79277E-02  8.38426E+00 -1.00000E+00  2.05042E-01
      21    -1     0     0   502   501  0.000000000E+00  0.000000000E+00  7.521496307E+02  7.521496307E+02  0.000000000E+00  0.00000E+00  9.000E+00
      21    -1     0     0   512   502  0.000000000E+00  0.000000000E+00 -6.851533469E+01  6.851533469E+01  0.000000000E+00  0.00000E+00  9.000E+00
      25     1     1     2     0     0  9.194342267E+01 -8.307966734E+01  1.062644789E+02  2.056038997E+02  1.250000000E+02  0.00000E+00  9.000E+00
      25     1     1     2     0     0 -9.524088164E+01  9.078827274E+01  5.787720809E+02  6.065603495E+02  1.250000000E+02  0.00000E+00  9.000E+00
      21     1     1     2   512   501  3.297458977E+00 -7.708605397E+00 -1.402263687E+00  8.500716224E+00  1.541388099E-07  0.00000E+00  9.000E+00
#rwgt            1           1   4.6781912572250110E-002           8        3995           0
</event>
<event>
      5   9999  3.79277E-02  1.06853E+02 -1.00000E+00  1.22547E-01
       2    -1     0     0   502     0  0.000000000E+00  0.000000000E+00  9.421625532E+02  9.421625532E+02  0.000000000E+00  0.00000E+00  9.000E+00
      21    -1     0     0   501   502  0.000000000E+00  0.000000000E+00 -2.718917635E+02  2.718917635E+02  0.000000000E+00  0.00000E+00  9.000E+00
      25     1     1     2     0     0  1.940137432E+02 -6.067212466E+01 -5.267840211E+01  2.443817778E+02  1.250000000E+02  0.00000E+00  9.000E+00
      25     1     1     2     0     0 -2.409414471E+02  1.566684277E+02  8.762329108E+01  3.254237519E+02  1.250000000E+02  0.00000E+00  9.000E+00
       2     1     1     2   501     0  4.692770386E+01 -9.599630302E+01  6.353259007E+02  6.442487871E+02  7.629394531E-06  0.00000E+00  9.000E+00
#rwgt            1           1   3.3116524141116890E-002           8        4349           0
</event>
<event>
      5   9999  3.79277E-02  5.66493E+01 -1.00000E+00  1.36051E-01
      21    -1     0     0   502   501  0.000000000E+00  0.000000000E+00  1.521027056E+02  1.521027056E+02  0.000000000E+00  0.00000E+00  9.000E+00
      21    -1     0     0   501   511  0.000000000E+00  0.000000000E+00 -9.465206158E+02  9.465206158E+02  0.000000000E+00  0.00000E+00  9.000E+00
      25     1     1     2     0     0 -2.888024682E+01 -2.098907694E+02 -3.975667204E+01  2.491862691E+02  1.250000000E+02  0.00000E+00  9.000E+00
      25     1     1     2     0     0  5.029066248E+01  2.623382279E+02 -4.398479992E+02  5.295675206E+02  1.250000000E+02  0.00000E+00  9.000E+00
      21     1     1     2   502   511 -2.141041566E+01 -5.244745848E+01 -3.148132390E+02  3.198695316E+02  3.814697266E-06  0.00000E+00  9.000E+00
#rwgt            1           1   3.7220583613823729E-002           8        4476           0
</event>
<event>
      5   9999  3.79277E-02  4.75175E+01 -1.00000E+00  1.40349E-01
       2    -1     0     0   502     0  0.000000000E+00  0.000000000E+00  9.497724359E+02  9.497724359E+02  0.000000000E+00  0.00000E+00  9.000E+00
      21    -1     0     0   501   502  0.000000000E+00  0.000000000E+00 -5.863446447E+01  5.863446447E+01  0.000000000E+00  0.00000E+00  9.000E+00
      25     1     1     2     0     0 -1.911168690E+01 -9.594156088E+01  4.016257534E+02  4.318544726E+02  1.250000000E+02  0.00000E+00  9.000E+00
      25     1     1     2     0     0 -2.836433944E+01  9.395747733E+01  1.081333713E+02  1.922247884E+02  1.250000000E+02  0.00000E+00  9.000E+00
       2     1     1     2   501     0  4.747602633E+01  1.984083547E+00  3.813788467E+02  3.843276393E+02  0.000000000E+00  0.00000E+00  9.000E+00
#rwgt            1           1   2.3677682063432685E-002           8        4743           0
</event>
<event>
      5   9999  3.79277E-02  1.57384E+02 -1.00000E+00  1.15573E-01
      21    -1     0     0   502   501  0.000000000E+00  0.000000000E+00  2.690086313E+02  2.690086313E+02  0.000000000E+00  0.00000E+00  9.000E+00
      21    -1     0     0   501   511  0.000000000E+00  0.000000000E+00 -2.682677637E+02  2.682677637E+02  0.000000000E+00  0.00000E+00  9.000E+00
      25     1     1     2     0     0  1.426377023E+02  7.052815705E+01  3.505922908E+01  2.053628121E+02  1.250000000E+02  0.00000E+00  9.000E+00
      25     1     1     2     0     0 -1.584888089E+01  2.271446720E+01  6.723272688E+01  1.446111116E+02  1.250000000E+02  0.00000E+00  9.000E+00
      21     1     1     2   502   511 -1.267888214E+02 -9.324262425E+01 -1.015510884E+02  1.873024713E+02  0.000000000E+00  0.00000E+00  9.000E+00
#rwgt            1           1   7.7041471235523865E-002           8        4986           0
</event>
<event>
      5   9999  3.79277E-02  2.60850E+01 -1.00000E+00  1.57381E-01
      21    -1     0     0   502   501  0.000000000E+00  0.000000000E+00  7.570139201E+02  7.570139201E+02  0.000000000E+00  0.00000E+00  9.000E+00
      21    -1     0     0   501   512  0.000000000E+00  0.000000000E+00 -5.282422575E+02  5.282422575E+02  0.000000000E+00  0.00000E+00  9.000E+00
      25     1     1     2     0     0 -1.402582785E+02  1.834983807E+01  5.489379243E+02  5.804885408E+02  1.250000000E+02  0.00000E+00  9.000E+00
      25     1     1     2     0     0  1.479357396E+02  6.579745825E+00  1.430193444E+02  2.408481036E+02  1.250000000E+02  0.00000E+00  9.000E+00
      21     1     1     2   502   512 -7.677461134E+00 -2.492958389E+01 -4.631856062E+02  4.639195332E+02  0.000000000E+00  0.00000E+00  9.000E+00
#rwgt            1           1   4.1258473230781252E-002           8        5033           0
</event>
<event>
      5   9999  3.79277E-02  1.17959E+02 -1.00000E+00  1.20685E-01
      21    -1     0     0   502   501  0.000000000E+00  0.000000000E+00  1.028585168E+03  1.028585168E+03  0.000000000E+00  0.00000E+00  9.000E+00
      21    -1     0     0   511   502  0.000000000E+00  0.000000000E+00 -1.262417577E+02  1.262417577E+02  0.000000000E+00  0.00000E+00  9.000E+00
      25     1     1     2     0     0  1.262028350E+02  9.642698566E+01  1.591640972E+02  2.572615963E+02  1.250000000E+02  0.00000E+00  9.000E+00
      25     1     1     2     0     0 -7.006051709E+01 -2.001692541E+02  7.396638104E+02  7.795535637E+02  1.250000000E+02  0.00000E+00  9.000E+00
      21     1     1     2   511   501 -5.614231792E+01  1.037422684E+02  3.515502925E+00  1.180117658E+02  1.494282620E-06  0.00000E+00  9.000E+00
#rwgt            1           1   3.1669966508126063E-002           8        5163           0
</event>
<event>
      5   9999  3.79277E-02  9.72337E+01 -1.00000E+00  1.24378E-01
      21    -1     0     0   502   501  0.000000000E+00  0.000000000E+00  1.105820101E+02  1.105820101E+02  0.000000000E+00  0.00000E+00  9.000E+00
      21    -1     0     0   501   512  0.000000000E+00  0.000000000E+00 -9.369222818E+02  9.369222818E+02  0.000000000E+00  0.00000E+00  9.000E+00
      25     1     1     2     0     0 -2.588242809E+01  2.056466316E+02 -5.163970415E+02  5.703081112E+02  1.250000000E+02  0.00000E+00  9.000E+00
      25     1     1     2     0     0  6.533729386E+01 -1.167775938E+02 -3.614855237E+01  1.866485634E+02  1.250000000E+02  0.00000E+00  9.000E+00
      21     1     1     2   502   512 -3.945486577E+01 -8.886903783E+01 -2.737946778E+02  2.905476173E+02  3.814697266E-06  0.00000E+00  9.000E+00
#rwgt            1           1   4.1654436570995781E-002           8        5230           0
</event>
<event>
      5   9999  3.79277E-02  1.23510E+01 -1.00000E+00  1.85721E-01
       2    -1     0     0   502     0  0.000000000E+00  0.000000000E+00  4.156790440E+03  4.156790440E+03  0.000000000E+00  0.00000E+00  9.000E+00
      21    -1     0     0   501   502  0.000000000E+00  0.000000000E+00 -2.269786173E+02  2.269786173E+02  0.000000000E+00  0.00000E+00  9.000E+00
      25     1     1     2     0     0 -1.931832787E+02  5.569100780E+01  1.197542411E+02  2.653061360E+02  1.250000000E+02  0.00000E+00  9.000E+00
      25     1     1     2     0     0  1.868733033E+02 -6.630854264E+01 -6.511045217E+01  2.432752048E+02  1.250000000E+02  0.00000E+00  9.000E+00
       2     1     1     2   501     0  6.309975440E+00  1.061753484E+01  3.875168034E+03  3.875187716E+03  4.315837288E-05  0.00000E+00  9.000E+00
#rwgt            1           1   3.1381043748042403E-002           8        5284           0
</event>
<event>
      5   9999  3.79277E-02  7.39136E+01 -1.00000E+00  1.30035E-01
      21    -1     0     0   511   501  0.000000000E+00  0.000000000E+00  1.886293996E+03  1.886293996E+03  0.000000000E+00  0.00000E+00  9.000E+00
      21    -1     0     0   501   502  0.000000000E+00  0.000000000E+00 -4.934427193E+01  4.934427193E+01  0.000000000E+00  0.00000E+00  9.000E+00
      25     1     1     2     0     0  1.854892103E+02  1.555890504E+00  8.261937211E+02  8.559379258E+02  1.250000000E+02  0.00000E+00  9.000E+00
      25     1     1     2     0     0 -2.210771637E+02 -6.633800836E+01  5.106719590E+02  5.741835015E+02  1.250000000E+02  0.00000E+00  9.000E+00
      21     1     1     2   511   502  3.558795340E+01  6.478211786E+01  5.000840435E+02  5.055168402E+02  5.394796609E-06  0.00000E+00  9.000E+00
#rwgt            1           1   2.5907890296904539E-002           8        5468           0
</event>
<event>
      5   9999  3.79277E-02  5.99396E+01 -1.00000E+00  1.34727E-01
      21    -1     0     0   502   512  0.000000000E+00  0.000000000E+00  5.056101650E+02  5.056101650E+02  0.000000000E+00  0.00000E+00  9.000E+00
      21    -1     0     0   501   502  0.000000000E+00  0.000000000E+00 -1.098001114E+02  1.098001114E+02  0.000000000E+00  0.00000E+00  9.000E+00
      25     1     1     2     0     0 -1.047776008E+01  6.110520845E+01  3.717653831E+02  3.970870560E+02  1.250000000E+02  0.00000E+00  9.000E+00
      25     1     1     2     0     0 -4.236003289E+01 -3.280460704E+01 -2.810622515E+01  1.388721517E+02  1.250000000E+02  0.00000E+00  9.000E+00
      21     1     1     2   501   512  5.283779297E+01 -2.830060141E+01  5.215089561E+01  7.945106871E+01  6.743495762E-07  0.00000E+00  9.000E+00
#rwgt            1           1   3.0466491782742626E-002           8        5553           0
</event>
<event>
      5   9999  3.79277E-02  5.77348E+00 -1.00000E+00  2.28099E-01
      21    -1     0     0   502   501  0.000000000E+00  0.000000000E+00  4.619411904E+02  4.619411904E+02  0.000000000E+00  0.00000E+00  9.000E+00
      21    -1     0     0   501   511  0.000000000E+00  0.000000000E+00 -1.110939599E+03  1.110939599E+03  0.000000000E+00  0.00000E+00  9.000E+00
      25     1     1     2     0     0  2.405486470E+01  1.664186071E+01 -2.877639793E+01  1.315624153E+02  1.250000000E+02  0.00000E+00  9.000E+00
      25     1     1     2     0     0 -2.305374587E+01 -2.232787847E+01  4.003978818E+02  4.206821521E+02  1.250000000E+02  0.00000E+00  9.000E+00
      21     1     1     2   502   511 -1.001118833E+00  5.686017759E+00 -1.020619892E+03  1.020636222E+03  0.000000000E+00  0.00000E+00  9.000E+00
#rwgt            1           1   3.1935051916722523E-002           8        5645           0
</event>
<event>
      5   9999  3.79277E-02  4.77535E+01 -1.00000E+00  1.40224E-01
      21    -1     0     0   502   501  0.000000000E+00  0.000000000E+00  3.769406217E+02  3.769406217E+02  0.000000000E+00  0.00000E+00  9.000E+00
       2    -1     0     0   501     0  0.000000000E+00  0.000000000E+00 -8.178295616E+02  8.178295616E+02  0.000000000E+00  0.00000E+00  9.000E+00
      25     1     1     2     0     0 -1.663877246E+02  1.767436710E+02  8.508785871E+01  2.859862652E+02  1.250000000E+02  0.00000E+00  9.000E+00
      25     1     1     2     0     0  1.243384843E+02 -1.541105924E+02  1.185658077E+02  2.624747304E+02  1.250000000E+02  0.00000E+00  9.000E+00
       2     1     1     2   502     0  4.204924034E+01 -2.263307866E+01 -6.445426063E+02  6.463091878E+02  7.629394531E-06  0.00000E+00  9.000E+00
#rwgt            1           1   3.4659967528925882E-002           8        5969           0
</event>
<event>
      5   9999  3.79277E-02  4.91874E+01 -1.00000E+00  1.39483E-01
      21    -1     0     0   502   501  0.000000000E+00  0.000000000E+00  1.150688633E+02  1.150688633E+02  0.000000000E+00  0.00000E+00  9.000E+00
      21    -1     0     0   501   511  0.000000000E+00  0.000000000E+00 -8.589622244E+02  8.589622244E+02  0.000000000E+00  0.00000E+00  9.000E+00
      25     1     1     2     0     0  2.129265687E+01 -1.871060027E+02 -3.070304536E+02  3.812541580E+02  1.250000000E+02  0.00000E+00  9.000E+00
      25     1     1     2     0     0  8.797303195E+00  1.481959402E+02 -4.681502142E+01  1.996398645E+02  1.250000000E+02  0.00000E+00  9.000E+00
      21     1     1     2   502   511 -3.008996006E+01  3.891006249E+01 -3.900478861E+02  3.931370653E+02  0.000000000E+00  0.00000E+00  9.000E+00
#rwgt            1           1   3.3734481668083828E-002           8        6447           0
</event>
<event>
      5   9999 -3.79277E-02  1.58854E+01 -1.00000E+00  1.75069E-01
      21    -1     0     0   502   501  0.000000000E+00  0.000000000E+00  7.615963160E+01  7.615963160E+01  0.000000000E+00  0.00000E+00  9.000E+00
       2    -1     0     0   501     0  0.000000000E+00  0.000000000E+00 -1.068020257E+03  1.068020257E+03  0.000000000E+00  0.00000E+00  9.000E+00
      25     1     1     2     0     0  1.229490024E+02  4.929740238E-01 -1.853181465E+02  2.551166706E+02  1.250000000E+02  0.00000E+00  9.000E+00
      25     1     1     2     0     0 -1.089089619E+02 -7.924275623E+00 -1.261296369E+02  2.084649645E+02  1.250000000E+02  0.00000E+00  9.000E+00
       2     1     1     2   502     0 -1.404004049E+01  7.431301599E+00 -6.804128424E+02  6.805982538E+02  1.321449896E-05  0.00000E+00  9.000E+00
#rwgt            1           1  -7.6181694442949491E-002           8        6534           0
</event>
<event>
      5   9999  3.79277E-02  2.74740E+01 -1.00000E+00  1.55741E-01
      21    -1     0     0   511   501  0.000000000E+00  0.000000000E+00  2.205816938E+02  2.205816938E+02  0.000000000E+00  0.00000E+00  9.000E+00
      21    -1     0     0   501   502  0.000000000E+00  0.000000000E+00 -1.075233188E+03  1.075233188E+03  0.000000000E+00  0.00000E+00  9.000E+00
      25     1     1     2     0     0  1.100634593E+02 -1.353118745E+02 -8.144868312E+02  8.422808716E+02  1.250000000E+02  0.00000E+00  9.000E+00
      25     1     1     2     0     0 -8.681359931E+01  1.499497216E+02 -1.992209074E+02  2.921223887E+02  1.250000000E+02  0.00000E+00  9.000E+00
      21     1     1     2   511   502 -2.324986002E+01 -1.463784712E+01  1.590562446E+02  1.614116214E+02  2.697398305E-06  0.00000E+00  9.000E+00
#rwgt            1           1   2.6936167723256889E-002           8        6740           0
</event>
<event>
      5   9999  3.79277E-02  3.98411E+01 -1.00000E+00  1.44947E-01
       4    -1     0     0   502     0  0.000000000E+00  0.000000000E+00  3.718721134E+02  3.718721134E+02  0.000000000E+00  0.00000E+00  9.000E+00
      21    -1     0     0   501   502  0.000000000E+00  0.000000000E+00 -4.569847124E+02  4.569847124E+02  0.000000000E+00  0.00000E+00  9.000E+00
      25     1     1     2     0     0  8.585308328E+01  7.825781773E+01 -3.008091030E+02  3.458412272E+02  1.250000000E+02  0.00000E+00  9.000E+00
      25     1     1     2     0     0 -1.171421904E+02 -1.029216603E+02 -5.668650657E+01  2.077342556E+02  1.250000000E+02  0.00000E+00  9.000E+00
       4     1     1     2   501     0  3.128910712E+01  2.466384254E+01  2.723830106E+02  2.752813430E+02  0.000000000E+00  0.00000E+00  9.000E+00
#rwgt            1           1  0.29804893030306506                8        6951           0
</event>
<event>
      5   9999  3.79277E-02  1.85109E+01 -1.00000E+00  1.69190E-01
      21    -1     0     0   511   501  0.000000000E+00  0.000000000E+00  5.287364199E+02  5.287364199E+02  0.000000000E+00  0.00000E+00  9.000E+00
      21    -1     0     0   501   502  0.000000000E+00  0.000000000E+00 -1.656525171E+02  1.656525171E+02  0.000000000E+00  0.00000E+00  9.000E+00
      25     1     1     2     0     0  3.328093987E+01  7.479666227E+01  3.371802755E+01  1.531798519E+02  1.250000000E+02  0.00000E+00  9.000E+00
      25     1     1     2     0     0 -5.166994623E+01 -7.267554430E+01 -4.993090783E+01  1.614608734E+02  1.250000000E+02  0.00000E+00  9.000E+00
      21     1     1     2   511   502  1.838900636E+01 -2.121117971E+00  3.792967830E+02  3.797482117E+02  5.394796609E-06  0.00000E+00  9.000E+00
#rwgt            1           1   3.7457092169145723E-002           8        7098           0
</event>
<event>
      5   9999  3.79277E-02  1.92158E+01 -1.00000E+00  1.67815E-01
      21    -1     0     0   512   501  0.000000000E+00  0.000000000E+00  5.914716489E+01  5.914716489E+01  0.000000000E+00  0.00000E+00  9.000E+00
      21    -1     0     0   501   502  0.000000000E+00  0.000000000E+00 -6.488228283E+02  6.488228283E+02  0.000000000E+00  0.00000E+00  9.000E+00
      25     1     1     2     0     0  7.348207941E-01  2.501400589E+01 -5.291995519E+02  5.443375848E+02  1.250000000E+02  0.00000E+00  9.000E+00
      25     1     1     2     0     0 -2.532615993E+00 -4.414554232E+01 -5.581400039E+01  1.438591175E+02  1.250000000E+02  0.00000E+00  9.000E+00
      21     1     1     2   512   502  1.797795199E+00  1.913153643E+01 -4.662111116E+00  1.977329092E+01  2.665600750E-07  0.00000E+00  9.000E+00
#rwgt            1           1   5.1437502799325963E-002           8        7297           0
</event>
<event>
      5   9999  3.79277E-02  1.88917E+02 -1.00000E+00  1.12557E-01
      21    -1     0     0   502   501  0.000000000E+00  0.000000000E+00  7.439831189E+02  7.439831189E+02  0.000000000E+00  0.00000E+00  9.000E+00
      -2    -1     0     0     0   502  0.000000000E+00  0.000000000E+00 -3.309562673E+02  3.309562673E+02  0.000000000E+00  0.00000E+00  9.000E+00
      25     1     1     2     0     0  1.175165953E+02 -1.207430039E+02  2.307531921E+02  3.118670531E+02  1.250000000E+02  0.00000E+00  9.000E+00
      25     1     1     2     0     0 -1.764072432E+02 -5.876077757E+01  4.099772413E+02  4.672030424E+02  1.250000000E+02  0.00000E+00  9.000E+00
      -2     1     1     2     0   501  5.889064787E+01  1.795037815E+02 -2.277035818E+02  2.958692906E+02  5.394796609E-06  0.00000E+00  9.000E+00
#rwgt            1           1   4.4565018357177424E-002           8        7559           0
</event>
<event>
      5   9999  3.79277E-02  7.90071E+01 -1.00000E+00  1.28613E-01
      21    -1     0     0   511   501  0.000000000E+00  0.000000000E+00  4.853828579E+02  4.853828579E+02  0.000000000E+00  0.00000E+00  9.000E+00
      21    -1     0     0   501   502  0.000000000E+00  0.000000000E+00 -2.635515336E+02  2.635515336E+02  0.000000000E+00  0.00000E+00  9.000E+00
      25     1     1     2     0     0  9.683570811E+01 -1.258381992E+02 -9.263525348E+01  2.223031645E+02  1.250000000E+02  0.00000E+00  9.000E+00
      25     1     1     2     0     0 -9.628222639E+01  4.683305769E+01 -3.506637089E+01  1.682802804E+02  1.250000000E+02  0.00000E+00  9.000E+00
      21     1     1     2   511   502 -5.534817209E-01  7.900514148E+01  3.495329487E+02  3.583509466E+02  0.000000000E+00  0.00000E+00  9.000E+00
#rwgt            1           1   2.8141826869251693E-002           8        7588           0
</event>
<event>
      5   9999  3.79277E-02  1.69874E+01 -1.00000E+00  1.72440E-01
      21    -1     0     0   502   501  0.000000000E+00  0.000000000E+00  1.388482272E+02  1.388482272E+02  0.000000000E+00  0.00000E+00  9.000E+00
      21    -1     0     0   501   512  0.000000000E+00  0.000000000E+00 -2.665250315E+02  2.665250315E+02  0.000000000E+00  0.00000E+00  9.000E+00
      25     1     1     2     0     0  5.965725067E+01  9.617449410E+01 -1.055423882E+02  1.989289235E+02  1.250000000E+02  0.00000E+00  9.000E+00
      25     1     1     2     0     0 -5.920090044E+01 -7.919322328E+01  2.036682629E+01  1.606739582E+02  1.250000000E+02  0.00000E+00  9.000E+00
      21     1     1     2   502   512 -4.563502312E-01 -1.698127082E+01 -4.250124235E+01  4.577037705E+01  4.768371582E-07  0.00000E+00  9.000E+00
#rwgt            1           1   3.7023344717203539E-002           8        7668           0
</event>
<event>
      5   9999  3.79277E-02  1.77893E+02 -1.00000E+00  1.13532E-01
      21    -1     0     0   502   501  0.000000000E+00  0.000000000E+00  4.504052792E+02  4.504052792E+02  0.000000000E+00  0.00000E+00  9.000E+00
      21    -1     0     0   511   502  0.000000000E+00  0.000000000E+00 -6.745321410E+02  6.745321410E+02  0.000000000E+00  0.00000E+00  9.000E+00
      25     1     1     2     0     0 -1.300298187E+02  2.487551508E+02 -5.163330309E+01  3.115732286E+02  1.250000000E+02  0.00000E+00  9.000E+00
      25     1     1     2     0     0  1.326209845E+02 -4.266293101E+02  1.125340726E+02  4.773780590E+02  1.250000000E+02  0.00000E+00  9.000E+00
      21     1     1     2   511   501 -2.591165732E+00  1.778741593E+02 -2.850276314E+02  3.359861326E+02  5.394796609E-06  0.00000E+00  9.000E+00
#rwgt            1           1   8.1903481826450242E-002           8        7852           0
</event>
<event>
      5   9999  3.79277E-02  1.63223E+02 -1.00000E+00  1.14958E-01
      21    -1     0     0   502   501  0.000000000E+00  0.000000000E+00  4.357514250E+02  4.357514250E+02  0.000000000E+00  0.00000E+00  9.000E+00
      21    -1     0     0   512   502  0.000000000E+00  0.000000000E+00 -2.284506971E+02  2.284506971E+02  0.000000000E+00  0.00000E+00  9.000E+00
      25     1     1     2     0     0  1.997103007E+01  8.642630480E+01 -2.553655913E+01  1.553881078E+02  1.250000000E+02  0.00000E+00  9.000E+00
      25     1     1     2     0     0 -1.504531251E+02 -1.844886140E+02  2.156723367E+02  3.446908011E+02  1.250000000E+02  0.00000E+00  9.000E+00
      21     1     1     2   512   501  1.304820951E+02  9.806230917E+01  1.716495037E+01  1.641232133E+02  4.129530925E-07  0.00000E+00  9.000E+00
#rwgt            1           1   2.8447707242875927E-002           8        7965           0
</event>
<event>
      5   9999  3.79277E-02  1.37573E+01 -1.00000E+00  1.80996E-01
      21    -1     0     0   511   501  0.000000000E+00  0.000000000E+00  4.148635950E+02  4.148635950E+02  0.000000000E+00  0.00000E+00  9.000E+00
      21    -1     0     0   501   502  0.000000000E+00  0.000000000E+00 -2.040399740E+02  2.040399740E+02  0.000000000E+00  0.00000E+00  9.000E+00
      25     1     1     2     0     0  1.075884967E+02  1.801650059E+02  1.255480501E+02  2.746307100E+02  1.250000000E+02  0.00000E+00  9.000E+00
      25     1     1     2     0     0 -1.071752151E+02 -1.939161333E+02 -3.522103377E+00  2.544157989E+02  1.250000000E+02  0.00000E+00  9.000E+00
      21     1     1     2   511   502 -4.132816146E-01  1.375112745E+01  8.879767423E+01  8.985706014E+01  0.000000000E+00  0.00000E+00  9.000E+00
#rwgt            1           1   4.3171706825297702E-002           8        8121           0
</event>
<event>
      5   9999  3.79277E-02  1.30659E+01 -1.00000E+00  1.83224E-01
      21    -1     0     0   502   501  0.000000000E+00  0.000000000E+00  2.667913947E+02  2.667913947E+02  0.000000000E+00  0.00000E+00  9.000E+00
      21    -1     0     0   512   502  0.000000000E+00  0.000000000E+00 -1.802897468E+02  1.802897468E+02  0.000000000E+00  0.00000E+00  9.000E+00
      25     1     1     2     0     0  8.575017209E+00  9.520474605E+01  1.951618076E+02  2.507002308E+02  1.250000000E+02  0.00000E+00  9.000E+00
      25     1     1     2     0     0 -2.192257449E+00 -8.380391911E+01 -1.004065361E+02  1.809264363E+02  1.250000000E+02  0.00000E+00  9.000E+00
      21     1     1     2   512   501 -6.382759761E+00 -1.140082693E+01 -8.253623632E+00  1.545447443E+01  2.064765462E-07  0.00000E+00  9.000E+00
#rwgt            1           1   3.7014531648516064E-002           8        8483           0
</event>
<event>
      5   9999  3.79277E-02  1.03404E+02 -1.00000E+00  1.23178E-01
      21    -1     0     0   502   501  0.000000000E+00  0.000000000E+00  7.107943141E+01  7.107943141E+01  0.000000000E+00  0.00000E+00  9.000E+00
       2    -1     0     0   501     0  0.000000000E+00  0.000000000E+00 -2.020623001E+03  2.020623001E+03  0.000000000E+00  0.00000E+00  9.000E+00
      25     1     1     2     0     0  1.580247405E+02 -1.417994022E+02 -3.749170749E+02  4.486275762E+02  1.250000000E+02  0.00000E+00  9.000E+00
      25     1     1     2     0     0 -8.145239457E+01  7.230766674E+01 -1.803820169E+02  2.450011495E+02  1.250000000E+02  0.00000E+00  9.000E+00
       2     1     1     2   502     0 -7.657234594E+01  6.949173543E+01 -1.394244477E+03  1.398073706E+03  0.000000000E+00  0.00000E+00  9.000E+00
#rwgt            1           1   3.8461438798392464E-002           8        8739           0
</event>
<event>
      5   9999  3.79277E-02  8.26686E+00 -1.00000E+00  2.05825E-01
      21    -1     0     0   502   501  0.000000000E+00  0.000000000E+00  1.770790419E+02  1.770790419E+02  0.000000000E+00  0.00000E+00  9.000E+00
      21    -1     0     0   511   502  0.000000000E+00  0.000000000E+00 -2.716067612E+02  2.716067612E+02  0.000000000E+00  0.00000E+00  9.000E+00
      25     1     1     2     0     0  6.692546916E+01 -8.020480366E+00  6.429148332E+01  1.558901580E+02  1.250000000E+02  0.00000E+00  9.000E+00
      25     1     1     2     0     0 -7.432772715E+01  1.170118011E+01 -1.270873374E+01  1.464514956E+02  1.250000000E+02  0.00000E+00  9.000E+00
      21     1     1     2   511   501  7.402257988E+00 -3.680699746E+00 -1.461104689E+02  1.463441495E+02  1.907348633E-06  0.00000E+00  9.000E+00
#rwgt            1           1   5.3243250935462130E-002           8        8784           0
</event>
<event>
      5   9999  3.79277E-02  1.01969E+02 -1.00000E+00  1.23448E-01
      21    -1     0     0   502   501  0.000000000E+00  0.000000000E+00  1.509611076E+03  1.509611076E+03  0.000000000E+00  0.00000E+00  9.000E+00
      21    -1     0     0   512   502  0.000000000E+00  0.000000000E+00 -1.554551808E+02  1.554551808E+02  0.000000000E+00  0.00000E+00  9.000E+00
      25     1     1     2     0     0  5.625524578E+01 -1.896689259E+02  1.377772400E+03  1.397505185E+03  1.250000000E+02  0.00000E+00  9.000E+00
      25     1     1     2     0     0 -6.603732044E+00  1.006050168E+02  8.032978653E+00  1.607933687E+02  1.250000000E+02  0.00000E+00  9.000E+00
      21     1     1     2   512   501 -4.965151374E+01  8.906390909E+01 -3.164948359E+01  1.067677036E+02  2.523185073E-06  0.00000E+00  9.000E+00
#rwgt            1           1   2.1688798591516206E-002           8        9087           0
</event>
<event>
      5   9999  3.79277E-02  5.34975E+01 -1.00000E+00  1.37421E-01
      21    -1     0     0   502   501  0.000000000E+00  0.000000000E+00  1.114472381E+03  1.114472381E+03  0.000000000E+00  0.00000E+00  9.000E+00
      21    -1     0     0   511   502  0.000000000E+00  0.000000000E+00 -1.321596444E+02  1.321596444E+02  0.000000000E+00  0.00000E+00  9.000E+00
      25     1     1     2     0     0  1.764503403E+02 -3.004447148E+01  9.082235564E+02  9.340944392E+02  1.250000000E+02  0.00000E+00  9.000E+00
      25     1     1     2     0     0 -1.974563669E+02  7.924540153E+01  7.825593339E+01  2.588780439E+02  1.250000000E+02  0.00000E+00  9.000E+00
      21     1     1     2   511   501  2.100602656E+01 -4.920093005E+01 -4.166753114E+00  5.365954250E+01  6.049210766E-07  0.00000E+00  9.000E+00
#rwgt            1           1   3.7129038995760311E-002           8        9348           0
</event>
<event>
      5   9999  3.79277E-02  2.53778E+01 -1.00000E+00  1.58264E-01
      21    -1     0     0   502   501  0.000000000E+00  0.000000000E+00  1.333377513E+02  1.333377513E+02  0.000000000E+00  0.00000E+00  9.000E+00
      21    -1     0     0   501   512  0.000000000E+00  0.000000000E+00 -4.307503655E+02  4.307503655E+02  0.000000000E+00  0.00000E+00  9.000E+00
      25     1     1     2     0     0 -1.337266285E+02  4.433543480E+01 -1.239270408E+02  2.254580967E+02  1.250000000E+02  0.00000E+00  9.000E+00
      25     1     1     2     0     0  1.136028632E+02 -5.979726014E+01 -1.687347507E+01  1.799751011E+02  1.250000000E+02  0.00000E+00  9.000E+00
      21     1     1     2   502   512  2.012376529E+01  1.546182535E+01 -1.566120984E+02  1.586549190E+02  2.697398305E-06  0.00000E+00  9.000E+00
#rwgt            1           1   6.6506351905956482E-002           8        9573           0
</event>
<event>
      5   9999  3.79277E-02  5.54687E+01 -1.00000E+00  1.36551E-01
       1    -1     0     0   502     0  0.000000000E+00  0.000000000E+00  2.101112035E+03  2.101112035E+03  0.000000000E+00  0.00000E+00  9.000E+00
      21    -1     0     0   501   502  0.000000000E+00  0.000000000E+00 -4.709008577E+02  4.709008577E+02  0.000000000E+00  0.00000E+00  9.000E+00
      25     1     1     2     0     0  8.503151766E+01 -1.082290172E+02 -2.495488097E+02  3.111968630E+02  1.250000000E+02  0.00000E+00  9.000E+00
      25     1     1     2     0     0 -7.073277297E+01  1.618230746E+02 -1.285936378E+02  2.516965561E+02  1.250000000E+02  0.00000E+00  9.000E+00
       1     1     1     2   501     0 -1.429874469E+01 -5.359405741E+01  2.008353625E+03  2.009119474E+03  0.000000000E+00  0.00000E+00  9.000E+00
#rwgt            1           1   4.2021965492797506E-002           8        9701           0
</event>
<event>
      5   9999  3.79277E-02  7.35338E+01 -1.00000E+00  1.30147E-01
      21    -1     0     0   502   511  0.000000000E+00  0.000000000E+00  4.569629921E+02  4.569629921E+02  0.000000000E+00  0.00000E+00  9.000E+00
      21    -1     0     0   501   502  0.000000000E+00  0.000000000E+00 -3.802578585E+02  3.802578585E+02  0.000000000E+00  0.00000E+00  9.000E+00
      25     1     1     2     0     0  1.342232537E+02  1.856167844E+02 -5.795489830E+01  2.673073937E+02  1.250000000E+02  0.00000E+00  9.000E+00
      25     1     1     2     0     0 -1.141570113E+02 -1.148738013E+02 -1.640840463E+02  2.622525266E+02  1.250000000E+02  0.00000E+00  9.000E+00
      21     1     1     2   501   511 -2.006624241E+01 -7.074298311E+01  2.987440782E+02  3.076609302E+02  3.814697266E-06  0.00000E+00  9.000E+00
#rwgt            1           1   3.6454980146333263E-002           8        9791           0
</event>
<event>
      5   9999  3.79277E-02  8.90058E+01 -1.00000E+00  1.26147E-01
      21    -1     0     0   502   501  0.000000000E+00  0.000000000E+00  3.524735182E+02  3.524735182E+02  0.000000000E+00  0.00000E+00  9.000E+00
      21    -1     0     0   512   502  0.000000000E+00  0.000000000E+00 -5.000095063E+02  5.000095063E+02  0.000000000E+00  0.00000E+00  9.000E+00
      25     1     1     2     0     0 -2.347640586E+02 -6.725758456E-01  8.660682712E+01  2.797147799E+02  1.250000000E+02  0.00000E+00  9.000E+00
      25     1     1     2     0     0  2.230040322E+02 -8.755287557E+01  5.017592860E+01  2.748434613E+02  1.250000000E+02  0.00000E+00  9.000E+00
      21     1     1     2   512   501  1.176002646E+01  8.822545141E+01 -2.843187438E+02  2.979247834E+02  0.000000000E+00  0.00000E+00  9.000E+00
#rwgt            1           1   3.1128301126144994E-002           8        9958           0
</event>
<event>
      5   9999  3.79277E-02  9.83979E+01 -1.00000E+00  1.24144E-01
      21    -1     0     0   502   501  0.000000000E+00  0.000000000E+00  1.954405947E+03  1.954405947E+03  0.000000000E+00  0.00000E+00  9.000E+00
      21    -1     0     0   501   511  0.000000000E+00  0.000000000E+00 -2.962841013E+01  2.962841013E+01  0.000000000E+00  0.00000E+00  9.000E+00
      25     1     1     2     0     0  4.299744470E+01  1.140440651E+01  4.854350033E+02  5.032404824E+02  1.250000000E+02  0.00000E+00  9.000E+00
      25     1     1     2     0     0 -8.320773288E+01  7.840246274E+01  1.295426403E+03  1.306455142E+03  1.250000000E+02  0.00000E+00  9.000E+00
      21     1     1     2   502   511  4.021028819E+01 -8.980686925E+01  1.439161311E+02  1.743387330E+02  3.303624740E-06  0.00000E+00  9.000E+00
#rwgt            1           1  0.17006112297626230                8       10056           0
</event>
<event>
      5   9999  3.79277E-02  3.87001E+01 -1.00000E+00  1.45736E-01
      -2    -1     0     0     0   501  0.000000000E+00  0.000000000E+00  8.999204901E+02  8.999204901E+02  0.000000000E+00  0.00000E+00  9.000E+00
      21    -1     0     0   501   502  0.000000000E+00  0.000000000E+00 -1.862221891E+02  1.862221891E+02  0.000000000E+00  0.00000E+00  9.000E+00
      25     1     1     2     0     0 -4.073408283E+00  1.409954049E+02 -1.225832179E+02  2.248286952E+02  1.250000000E+02  0.00000E+00  9.000E+00
      25     1     1     2     0     0  1.119299286E+00 -1.024082593E+02  5.786007834E+02  6.007433487E+02  1.250000000E+02  0.00000E+00  9.000E+00
      -2     1     1     2     0   502  2.954108997E+00 -3.858714569E+01  2.576807355E+02  2.605706354E+02  3.814697266E-06  0.00000E+00  9.000E+00
#rwgt            1           1   4.7799754538456973E-002           8       10139           0
</event>
<event>
      5   9999  3.79277E-02  1.94680E+01 -1.00000E+00  1.67341E-01
      21    -1     0     0   511   501  0.000000000E+00  0.000000000E+00  1.557193412E+02  1.557193412E+02  0.000000000E+00  0.00000E+00  9.000E+00
      21    -1     0     0   501   502  0.000000000E+00  0.000000000E+00 -2.958377292E+02  2.958377292E+02  0.000000000E+00  0.00000E+00  9.000E+00
      25     1     1     2     0     0  7.173328926E+01 -8.443728454E+01 -1.544135780E+02  2.274727959E+02  1.250000000E+02  0.00000E+00  9.000E+00
      25     1     1     2     0     0 -8.590173643E+01  7.108591959E+01 -3.496767227E+01  1.711141560E+02  1.250000000E+02  0.00000E+00  9.000E+00
      21     1     1     2   511   502  1.416844717E+01  1.335136495E+01  4.926286236E+01  5.297011846E+01  1.168007728E-06  0.00000E+00  9.000E+00
#rwgt            1           1   3.3978512711994396E-002           8       10305           0
</event>
<event>
      5   9999  3.79277E-02  1.74706E+01 -1.00000E+00  1.71364E-01
      21    -1     0     0   512   501  0.000000000E+00  0.000000000E+00  3.004235166E+02  3.004235166E+02  0.000000000E+00  0.00000E+00  9.000E+00
      21    -1     0     0   501   502  0.000000000E+00  0.000000000E+00 -3.595727997E+02  3.595727997E+02  0.000000000E+00  0.00000E+00  9.000E+00
      25     1     1     2     0     0  1.144720438E+02 -2.343498270E+02 -1.659055881E+02  3.334266852E+02  1.250000000E+02  0.00000E+00  9.000E+00
      25     1     1     2     0     0 -9.704646729E+01  2.330960998E+02  7.701318795E+01  2.920750583E+02  1.250000000E+02  0.00000E+00  9.000E+00
      21     1     1     2   512   502 -1.742557651E+01  1.253727181E+00  2.974311706E+01  3.449457292E+01  0.000000000E+00  0.00000E+00  9.000E+00
#rwgt            1           1   3.6669517759599271E-002           8       10547           0
</event>
<event>
      5   9999 -3.79277E-02  1.42577E+01 -1.00000E+00  1.79486E-01
      21    -1     0     0   502   511  0.000000000E+00  0.000000000E+00  1.802287681E+03  1.802287681E+03  0.000000000E+00  0.00000E+00  9.000E+00
      21    -1     0     0   501   502  0.000000000E+00  0.000000000E+00 -5.334661723E+01  5.334661723E+01  0.000000000E+00  0.00000E+00  9.000E+00
      25     1     1     2     0     0  2.158475964E+02 -7.874317606E+01  6.701336536E+02  7.193711047E+02  1.250000000E+02  0.00000E+00  9.000E+00
      25     1     1     2     0     0 -2.189122678E+02  6.481872794E+01  5.629746489E+02  6.202334269E+02  1.250000000E+02  0.00000E+00  9.000E+00
      21     1     1     2   501   511  3.064671475E+00  1.392444811E+01  5.158327615E+02  5.160297669E+02  0.000000000E+00  0.00000E+00  9.000E+00
#rwgt            1           1 -0.26932182831615875                8       10739           0
</event>
<event>
      5   9999  3.79277E-02  2.52336E+01 -1.00000E+00  1.58449E-01
      21    -1     0     0   502   512  0.000000000E+00  0.000000000E+00  1.333053260E+02  1.333053260E+02  0.000000000E+00  0.00000E+00  9.000E+00
      21    -1     0     0   501   502  0.000000000E+00  0.000000000E+00 -1.898312720E+02  1.898312720E+02  0.000000000E+00  0.00000E+00  9.000E+00
      25     1     1     2     0     0 -1.240064701E+01  4.807706570E+01  2.482553742E+01  1.367716623E+02  1.250000000E+02  0.00000E+00  9.000E+00
      25     1     1     2     0     0  3.023538080E+01 -3.022604733E+01 -8.981663087E+01  1.597492390E+02  1.250000000E+02  0.00000E+00  9.000E+00
      21     1     1     2   501   512 -1.783473380E+01 -1.785101837E+01  8.465147421E+00  2.661569663E+01  4.616955931E-07  0.00000E+00  9.000E+00
#rwgt            1           1   6.5040833567899303E-002           8       11008           0
</event>
<event>
      5   9999  3.79277E-02  1.84931E+01 -1.00000E+00  1.69226E-01
       2    -1     0     0   502     0  0.000000000E+00  0.000000000E+00  2.312890512E+03  2.312890512E+03  0.000000000E+00  0.00000E+00  9.000E+00
      21    -1     0     0   501   502  0.000000000E+00  0.000000000E+00 -3.061040917E+02  3.061040917E+02  0.000000000E+00  0.00000E+00  9.000E+00
      25     1     1     2     0     0  4.497728676E+01  3.042342776E+01 -2.603726660E+02  2.938834233E+02  1.250000000E+02  0.00000E+00  9.000E+00
      25     1     1     2     0     0 -4.928106819E+01 -4.840872844E+01  1.472913796E+02  2.051628114E+02  1.250000000E+02  0.00000E+00  9.000E+00
       2     1     1     2   501     0  4.303781429E+00  1.798530068E+01  2.119867706E+03  2.119948369E+03  4.315837288E-05  0.00000E+00  9.000E+00
#rwgt            1           1   3.6838527954751892E-002           8       11100           0
</event>
<event>
      5   9999  3.79277E-02  3.64613E+01 -1.00000E+00  1.47380E-01
      21    -1     0     0   502   511  0.000000000E+00  0.000000000E+00  1.019542119E+02  1.019542119E+02  0.000000000E+00  0.00000E+00  9.000E+00
      21    -1     0     0   501   502  0.000000000E+00  0.000000000E+00 -1.284564289E+03  1.284564289E+03  0.000000000E+00  0.00000E+00  9.000E+00
      25     1     1     2     0     0 -1.519547437E+02  3.521619963E+00 -9.005953064E+02  9.218457310E+02  1.250000000E+02  0.00000E+00  9.000E+00
      25     1     1     2     0     0  1.155605484E+02 -1.311032295E+00 -3.490566174E+02  3.883574144E+02  1.250000000E+02  0.00000E+00  9.000E+00
      21     1     1     2   501   511  3.639419524E+01 -2.210587668E+00  6.704184718E+01  7.631535507E+01  2.132480600E-06  0.00000E+00  9.000E+00
#rwgt            1           1   3.6732703096882875E-002           8       11387           0
</event>
<event>
      5   9999  3.79277E-02  1.78882E+01 -1.00000E+00  1.70469E-01
      21    -1     0     0   502   512  0.000000000E+00  0.000000000E+00  2.978583643E+02  2.978583643E+02  0.000000000E+00  0.00000E+00  9.000E+00
      21    -1     0     0   501   502  0.000000000E+00  0.000000000E+00 -4.567270582E+02  4.567270582E+02  0.000000000E+00  0.00000E+00  9.000E+00
      25     1     1     2     0     0 -1.480988362E+02 -4.607541014E+01 -3.739860550E+02  4.237296049E+02  1.250000000E+02  0.00000E+00  9.000E+00
      25     1     1     2     0     0  1.587777799E+02  6.042633624E+01  1.388515842E+02  2.525202723E+02  1.250000000E+02  0.00000E+00  9.000E+00
      21     1     1     2   501   512 -1.067894374E+01 -1.435092610E+01  7.626577692E+01  7.833554524E+01  0.000000000E+00  0.00000E+00  9.000E+00
#rwgt            1           1   3.9386984856422468E-002           8       11512           0
</event>
<event>
      5   9999  3.79277E-02  5.96054E+01 -1.00000E+00  1.34857E-01
      21    -1     0     0   502   501  0.000000000E+00  0.000000000E+00  1.483008096E+02  1.483008096E+02  0.000000000E+00  0.00000E+00  9.000E+00
      21    -1     0     0   511   502  0.000000000E+00  0.000000000E+00 -4.285229815E+02  4.285229815E+02  0.000000000E+00  0.00000E+00  9.000E+00
      25     1     1     2     0     0  1.447356780E+01 -5.730656859E+00 -1.779375332E+02  2.180116747E+02  1.250000000E+02  0.00000E+00  9.000E+00
      25     1     1     2     0     0 -5.965734001E+01  4.460522861E+01  8.068105138E+01  1.663822607E+02  1.250000000E+02  0.00000E+00  9.000E+00
      21     1     1     2   511   501  4.518377221E+01 -3.887457175E+01 -1.829656901E+02  1.924298556E+02  3.814697266E-06  0.00000E+00  9.000E+00
#rwgt            1           1   4.3635549607140549E-002           8       11743           0
</event>
<event>
      5   9999  3.79277E-02  4.60646E+01 -1.00000E+00  1.41138E-01
      21    -1     0     0   502   512  0.000000000E+00  0.000000000E+00  3.807017008E+02  3.807017008E+02  0.000000000E+00  0.00000E+00  9.000E+00
      21    -1     0     0   501   502  0.000000000E+00  0.000000000E+00 -1.929224497E+02  1.929224497E+02  0.000000000E+00  0.00000E+00  9.000E+00
      25     1     1     2     0     0 -1.744213924E+02 -1.547179559E+01  9.297180132E+01  2.343735361E+02  1.250000000E+02  0.00000E+00  9.000E+00
      25     1     1     2     0     0  1.454985083E+02 -2.038093301E+01 -3.981463531E+01  1.969654882E+02  1.250000000E+02  0.00000E+00  9.000E+00
      21     1     1     2   501   512  2.892288404E+01  3.585272860E+01  1.346220850E+02  1.422851262E+02  2.697398305E-06  0.00000E+00  9.000E+00
#rwgt            1           1   3.3753474014619048E-002           8       11845           0
</event>
<event>
      5   9999  3.79277E-02  1.96784E+01 -1.00000E+00  1.66952E-01
      21    -1     0     0   511   501  0.000000000E+00  0.000000000E+00  2.453162762E+02  2.453162762E+02  0.000000000E+00  0.00000E+00  9.000E+00
      21    -1     0     0   501   502  0.000000000E+00  0.000000000E+00 -2.941381410E+02  2.941381410E+02  0.000000000E+00  0.00000E+00  9.000E+00
      25     1     1     2     0     0  2.306520145E+01  8.371251708E+01  1.414967408E+02  2.078126962E+02  1.250000000E+02  0.00000E+00  9.000E+00
      25     1     1     2     0     0 -4.263770728E+01 -8.575103483E+01 -2.349648949E+02  2.828510490E+02  1.250000000E+02  0.00000E+00  9.000E+00
      21     1     1     2   511   502  1.957250583E+01  2.038517750E+00  4.464628928E+01  4.879067212E+01  8.259061849E-07  0.00000E+00  9.000E+00
#rwgt            1           1   3.1063704785073414E-002           8       11998           0
</event>
<event>
      5   9999  3.79277E-02  5.27645E+01  7.55638E-03  1.37755E-01
       1    -1     0     0   501     0  0.000000000E+00  0.000000000E+00  5.364375452E+02  5.364375452E+02  0.000000000E+00  0.00000E+00  9.000E+00
      -1    -1     0     0     0   502  0.000000000E+00  0.000000000E+00 -5.785206589E+01  5.785206589E+01  0.000000000E+00  0.00000E+00  9.000E+00
      25     1     1     2     0     0  1.858470713E+01 -2.991490276E+01  1.066118835E+02  1.680219821E+02  1.250000000E+02  0.00000E+00  9.000E+00
      25     1     1     2     0     0 -5.074039583E+01  7.174916278E+01  2.446796401E+02  2.884712402E+02  1.250000000E+02  0.00000E+00  9.000E+00
      21     1     1     2   501   502  3.215568871E+01 -4.183426001E+01  1.272939557E+02  1.377963889E+02  1.348699152E-06  0.00000E+00  9.000E+00
#rwgt            3           6   5.5662480057922209E-004           8       12260           0
</event>
<event>
      5   9999  3.79277E-02  1.05068E+02 -1.00000E+00  1.22870E-01
      21    -1     0     0   511   501  0.000000000E+00  0.000000000E+00  1.700968434E+02  1.700968434E+02  0.000000000E+00  0.00000E+00  9.000E+00
      21    -1     0     0   501   502  0.000000000E+00  0.000000000E+00 -8.304200179E+02  8.304200179E+02  0.000000000E+00  0.00000E+00  9.000E+00
      25     1     1     2     0     0 -9.686664038E+01  2.017015681E+02 -3.693540233E+02  4.495709767E+02  1.250000000E+02  0.00000E+00  9.000E+00
      25     1     1     2     0     0  1.344658690E+02 -2.998116561E+02 -2.712629374E+02  4.440458087E+02  1.250000000E+02  0.00000E+00  9.000E+00
      21     1     1     2   511   502 -3.759922859E+01  9.811008800E+01 -1.970621386E+01  1.069000759E+02  1.831327855E-06  0.00000E+00  9.000E+00
#rwgt            1           1   3.7125596964874198E-002           8       12279           0
</event>
<event>
      5   9999  3.79277E-02  2.00684E+01 -1.00000E+00  1.66247E-01
      21    -1     0     0   502   512  0.000000000E+00  0.000000000E+00  1.052130630E+02  1.052130630E+02  0.000000000E+00  0.00000E+00  9.000E+00
      21    -1     0     0   501   502  0.000000000E+00  0.000000000E+00 -5.834911443E+02  5.834911443E+02  0.000000000E+00  0.00000E+00  9.000E+00
      25     1     1     2     0     0  1.357953936E+02 -1.530858112E+01 -1.295149332E+02  2.259952643E+02  1.250000000E+02  0.00000E+00  9.000E+00
      25     1     1     2     0     0 -1.483271178E+02  3.098328204E+01 -3.787313195E+02  4.266418991E+02  1.250000000E+02  0.00000E+00  9.000E+00
      21     1     1     2   501   512  1.253172419E+01 -1.567470092E+01  2.996817140E+01  3.606704392E+01  4.768371582E-07  0.00000E+00  9.000E+00
#rwgt            1           1   3.7325977540232876E-002           8       12421           0
</event>
<event>
      5   9999  3.79277E-02  1.72226E+01 -1.00000E+00  1.71911E-01
      21    -1     0     0   502   511  0.000000000E+00  0.000000000E+00  4.010921389E+02  4.010921389E+02  0.000000000E+00  0.00000E+00  9.000E+00
      21    -1     0     0   501   502  0.000000000E+00  0.000000000E+00 -8.381714277E+01  8.381714277E+01  0.000000000E+00  0.00000E+00  9.000E+00
      25     1     1     2     0     0 -8.083059844E+01 -6.672808438E+01  1.761607182E+02  2.400912775E+02  1.250000000E+02  0.00000E+00  9.000E+00
      25     1     1     2     0     0  9.187895024E+01  5.351633347E+01  8.240296150E+01  1.836327517E+02  1.250000000E+02  0.00000E+00  9.000E+00
      21     1     1     2   501   511 -1.104835180E+01  1.321175091E+01  5.871131641E+01  6.118525242E+01  6.743495762E-07  0.00000E+00  9.000E+00
#rwgt            1           1   4.1835859316706955E-002           8       12576           0
</event>
<event>
      5   9999  3.79277E-02  2.98562E+00 -1.00000E+00  2.97503E-01
      21    -1     0     0   512   501  0.000000000E+00  0.000000000E+00  2.475272752E+02  2.475272752E+02  0.000000000E+00  0.00000E+00  9.000E+00
      21    -1     0     0   501   502  0.000000000E+00  0.000000000E+00 -1.241882805E+02  1.241882805E+02  0.000000000E+00  0.00000E+00  9.000E+00
      25     1     1     2     0     0  1.043101697E+02  1.127158809E+01  1.210451075E+02  2.031860680E+02  1.250000000E+02  0.00000E+00  9.000E+00
      25     1     1     2     0     0 -1.023597463E+02 -9.011105907E+00 -3.674977417E+00  1.618555626E+02  1.250000000E+02  0.00000E+00  9.000E+00
      21     1     1     2   512   502 -1.950423368E+00 -2.260482185E+00  5.968864557E+00  6.673925016E+00  8.429369702E-08  0.00000E+00  9.000E+00
#rwgt            1           1   3.9089716541831167E-002           8       12753           0
</event>
<event>
      5   9999  3.79277E-02  5.33386E+01 -1.00000E+00  1.37493E-01
      21    -1     0     0   502   501  0.000000000E+00  0.000000000E+00  9.947755702E+02  9.947755702E+02  0.000000000E+00  0.00000E+00  9.000E+00
      21    -1     0     0   511   502  0.000000000E+00  0.000000000E+00 -7.161268292E+01  7.161268292E+01  0.000000000E+00  0.00000E+00  9.000E+00
      25     1     1     2     0     0 -1.513177192E+02  1.143793320E+01  6.054629638E+02  6.365832852E+02  1.250000000E+02  0.00000E+00  9.000E+00
      25     1     1     2     0     0  1.955591140E+02 -4.123238453E+01  2.676973085E+02  3.566936018E+02  1.250000000E+02  0.00000E+00  9.000E+00
      21     1     1     2   511   501 -4.424139481E+01  2.979445133E+01  5.000261500E+01  7.311136609E+01  1.168007728E-06  0.00000E+00  9.000E+00
#rwgt            1           1   3.7033137515468106E-002           8       13286           0
</event>
<event>
      5   9999 -3.79277E-02  8.01355E+01 -1.00000E+00  1.28314E-01
       1    -1     0     0   502     0  0.000000000E+00  0.000000000E+00  3.338185123E+03  3.338185123E+03  0.000000000E+00  0.00000E+00  9.000E+00
      21    -1     0     0   501   502  0.000000000E+00  0.000000000E+00 -5.745599384E+01  5.745599384E+01  0.000000000E+00  0.00000E+00  9.000E+00
      25     1     1     2     0     0 -8.789799367E+01 -1.911256779E+02  2.965212238E+02  3.844540522E+02  1.250000000E+02  0.00000E+00  9.000E+00
      25     1     1     2     0     0  5.810848053E+01  1.167328765E+02  6.239828139E+02  6.496019643E+02  1.250000000E+02  0.00000E+00  9.000E+00
       1     1     1     2   501     0  2.978951315E+01  7.439280147E+01  2.360225092E+03  2.361585101E+03  3.051757812E-05  0.00000E+00  9.000E+00
#rwgt            1           1  -2.9560832173890068E-002           8       13391           0
</event>
<event>
      5   9999  3.79277E-02  2.26819E+01 -1.00000E+00  1.61983E-01
      21    -1     0     0   502   501  0.000000000E+00  0.000000000E+00  4.337394720E+02  4.337394720E+02  0.000000000E+00  0.00000E+00  9.000E+00
       2    -1     0     0   501     0  0.000000000E+00  0.000000000E+00 -2.498194369E+02  2.498194369E+02  0.000000000E+00  0.00000E+00  9.000E+00
      25     1     1     2     0     0  1.432782010E+02 -8.931510823E+01  2.499793716E+02  3.265279738E+02  1.250000000E+02  0.00000E+00  9.000E+00
      25     1     1     2     0     0 -1.542254068E+02  1.091803439E+02  5.559152575E+01  2.332836070E+02  1.250000000E+02  0.00000E+00  9.000E+00
       2     1     1     2   502     0  1.094720574E+01 -1.986523562E+01 -1.216508623E+02  1.237473281E+02  1.348699152E-06  0.00000E+00  9.000E+00
#rwgt            1           1   3.3752685936174913E-002           8       13577           0
</event>
<event>
      5   9999  3.79277E-02  3.05526E+01 -1.00000E+00  1.52491E-01
      21    -1     0     0   502   511  0.000000000E+00  0.000000000E+00  1.017592256E+02  1.017592256E+02  0.000000000E+00  0.00000E+00  9.000E+00
      21    -1     0     0   501   502  0.000000000E+00  0.000000000E+00 -1.138696783E+03  1.138696783E+03  0.000000000E+00  0.00000E+00  9.000E+00
      25     1     1     2     0     0 -2.867493575E+02  4.828173888E+01 -5.118026971E+02  6.017668328E+02  1.250000000E+02  0.00000E+00  9.000E+00
      25     1     1     2     0     0  2.864786240E+02 -1.773028917E+01 -5.210465752E+02  6.078642107E+02  1.250000000E+02  0.00000E+00  9.000E+00
      21     1     1     2   501   511  2.707334228E-01 -3.055144971E+01 -4.088284691E+00  3.082496468E+01  2.308477966E-07  0.00000E+00  9.000E+00
#rwgt            1           1   2.7952854629788259E-002           8       13722           0
</event>
<event>
      5   9999  3.79277E-02  2.58395E+01 -1.00000E+00  1.57684E-01
       2    -1     0     0   502     0  0.000000000E+00  0.000000000E+00  1.079440558E+03  1.079440558E+03  0.000000000E+00  0.00000E+00  9.000E+00
      21    -1     0     0   501   502  0.000000000E+00  0.000000000E+00 -5.870985924E+02  5.870985924E+02  0.000000000E+00  0.00000E+00  9.000E+00
      25     1     1     2     0     0  1.004426226E+01  8.056690590E+01 -5.760292389E+01  1.597967784E+02  1.250000000E+02  0.00000E+00  9.000E+00
      25     1     1     2     0     0 -1.438167485E+01 -5.509408527E+01 -4.683719189E+02  4.880977824E+02  1.250000000E+02  0.00000E+00  9.000E+00
       2     1     1     2   501     0  4.337412586E+00 -2.547282063E+01  1.018316808E+03  1.018644589E+03  1.078959322E-05  0.00000E+00  9.000E+00
#rwgt            1           1   4.7458226142477182E-002           8       13793           0
</event>
<event>
      5   9999  3.79277E-02  2.44248E+01 -1.00000E+00  1.59512E-01
      21    -1     0     0   502   501  0.000000000E+00  0.000000000E+00  2.544916653E+02  2.544916653E+02  0.000000000E+00  0.00000E+00  9.000E+00
      21    -1     0     0   511   502  0.000000000E+00  0.000000000E+00 -1.644943411E+03  1.644943411E+03  0.000000000E+00  0.00000E+00  9.000E+00
      25     1     1     2     0     0  2.305899892E+02  8.114029322E+01  8.724923113E+01  2.880849157E+02  1.250000000E+02  0.00000E+00  9.000E+00
      25     1     1     2     0     0 -2.089999408E+02 -6.971922514E+01 -1.737579612E+02  3.071784086E+02  1.250000000E+02  0.00000E+00  9.000E+00
      21     1     1     2   511   501 -2.159004838E+01 -1.142106808E+01 -1.303943016E+03  1.304171753E+03  1.525878906E-05  0.00000E+00  9.000E+00
#rwgt            1           1   2.7767152992399468E-002           8       14083           0
</event>
<event>
      5   9999  3.79277E-02  1.24274E+02 -1.00000E+00  1.19727E-01
      21    -1     0     0   502   512  0.000000000E+00  0.000000000E+00  8.080670559E+02  8.080670559E+02  0.000000000E+00  0.00000E+00  9.000E+00
      21    -1     0     0   501   502  0.000000000E+00  0.000000000E+00 -1.399307651E+02  1.399307651E+02  0.000000000E+00  0.00000E+00  9.000E+00
      25     1     1     2     0     0  1.144999354E+01 -8.810750340E+01 -4.173667306E+01  1.589370454E+02  1.250000000E+02  0.00000E+00  9.000E+00
      25     1     1     2     0     0 -1.328238646E+02  1.147973333E+02  3.847585648E+02  4.410042630E+02  1.250000000E+02  0.00000E+00  9.000E+00
      21     1     1     2   501   512  1.213738711E+02 -2.668982987E+01  3.251143990E+02  3.480565127E+02  3.814697266E-06  0.00000E+00  9.000E+00
#rwgt            1           1   4.9221451537275737E-002           8       14327           0
</event>
<event>
      5   9999  3.79277E-02  3.75104E+01 -1.00000E+00  1.46592E-01
      21    -1     0     0   502   511  0.000000000E+00  0.000000000E+00  1.963311718E+02  1.963311718E+02  0.000000000E+00  0.00000E+00  9.000E+00
      21    -1     0     0   501   502  0.000000000E+00  0.000000000E+00 -1.232141464E+03  1.232141464E+03  0.000000000E+00  0.00000E+00  9.000E+00
      25     1     1     2     0     0 -1.025527664E+02  4.068194310E+02 -7.812985917E+02  8.955845068E+02  1.250000000E+02  0.00000E+00  9.000E+00
      25     1     1     2     0     0  7.184539847E+01 -3.852767080E+02 -2.702614316E+02  4.922053884E+02  1.250000000E+02  0.00000E+00  9.000E+00
      21     1     1     2   501   511  3.070736794E+01 -2.154272298E+01  1.574973108E+01  4.068274067E+01  8.259061849E-07  0.00000E+00  9.000E+00
#rwgt            1           1  0.12952949750585105                8       14379           0
</event>
<event>
      5   9999  3.79277E-02  6.16448E+00 -1.00000E+00  2.23663E-01
      21    -1     0     0   512   501  0.000000000E+00  0.000000000E+00  5.033884044E+02  5.033884044E+02  0.000000000E+00  0.00000E+00  9.000E+00
      21    -1     0     0   501   502  0.000000000E+00  0.000000000E+00 -1.748353656E+02  1.748353656E+02  0.000000000E+00  0.00000E+00  9.000E+00
      25     1     1     2     0     0 -1.142141492E+02  1.572681661E+01 -9.652741752E+01  1.955370731E+02  1.250000000E+02  0.00000E+00  9.000E+00
      25     1     1     2     0     0  1.114275838E+02 -1.022810296E+01  2.159220775E+02  2.734374958E+02  1.250000000E+02  0.00000E+00  9.000E+00
      21     1     1     2   512   502  2.786565410E+00 -5.498713647E+00  2.091583787E+02  2.092492012E+02  0.000000000E+00  0.00000E+00  9.000E+00
#rwgt            1           1   4.3075947700773901E-002           8       14638           0
</event>
<event>
      5   9999  3.79277E-02  7.26853E+01 -1.00000E+00  1.30398E-01
      21    -1     0     0   502   501  0.000000000E+00  0.000000000E+00  1.179585873E+02  1.179585873E+02  0.000000000E+00  0.00000E+00  9.000E+00
      21    -1     0     0   501   511  0.000000000E+00  0.000000000E+00 -1.220568822E+03  1.220568822E+03  0.000000000E+00  0.00000E+00  9.000E+00
      25     1     1     2     0     0 -1.642204034E+02 -1.346129849E+02 -5.367604238E+01  2.521807172E+02  1.250000000E+02  0.00000E+00  9.000E+00
      25     1     1     2     0     0  1.096791416E+02  8.656718182E+01 -9.145148129E+02  9.335340027E+02  1.250000000E+02  0.00000E+00  9.000E+00
      21     1     1     2   502   511  5.454126188E+01  4.804580312E+01 -1.344193790E+02  1.528126889E+02  2.697398305E-06  0.00000E+00  9.000E+00
#rwgt            1           1   3.8981949895323845E-002           8       15099           0
</event>
<event>
      5   9999  3.79277E-02  4.89229E+01 -1.00000E+00  1.39617E-01
      21    -1     0     0   502   501  0.000000000E+00  0.000000000E+00  2.015210849E+02  2.015210849E+02  0.000000000E+00  0.00000E+00  9.000E+00
       4    -1     0     0   501     0  0.000000000E+00  0.000000000E+00 -4.001134593E+02  4.001134593E+02  0.000000000E+00  0.00000E+00  9.000E+00
      25     1     1     2     0     0  2.403537584E+01  1.728909589E+02  6.675219987E+01  2.248329138E+02  1.250000000E+02  0.00000E+00  9.000E+00
      25     1     1     2     0     0  2.467764195E+01 -1.774176963E+02 -2.219860238E+02  3.114302806E+02  1.250000000E+02  0.00000E+00  9.000E+00
       4     1     1     2   502     0 -4.871301779E+01  4.526737371E+00 -4.335855053E+01  6.537134967E+01  1.066240300E-06  0.00000E+00  9.000E+00
#rwgt            1           1   4.1594193261360470E-002           8       15345           0
</event>
<event>
      5   9999  3.79277E-02  6.51791E+00 -1.00000E+00  2.20029E-01
      21    -1     0     0   502   501  0.000000000E+00  0.000000000E+00  2.218502370E+03  2.218502370E+03  0.000000000E+00  0.00000E+00  9.000E+00
      21    -1     0     0   511   502  0.000000000E+00  0.000000000E+00 -5.282220828E+01  5.282220828E+01  0.000000000E+00  0.00000E+00  9.000E+00
      25     1     1     2     0     0  9.572126811E+01 -2.239895054E+02  7.629871878E+02  8.106221737E+02  1.250000000E+02  0.00000E+00  9.000E+00
      25     1     1     2     0     0 -9.469819212E+01  2.304266237E+02  1.417437027E+03  1.444581912E+03  1.250000000E+02  0.00000E+00  9.000E+00
      21     1     1     2   511   501 -1.023075994E+00 -6.437118332E+00 -1.474405287E+01  1.612049230E+01  8.920806376E-07  0.00000E+00  9.000E+00
#rwgt            1           1  0.10988604917016200                8       15569           0
</event>
<event>
      5   9999  3.79277E-02  4.25662E+01 -1.00000E+00  1.43185E-01
      21    -1     0     0   512   501  0.000000000E+00  0.000000000E+00  4.858779995E+02  4.858779995E+02  0.000000000E+00  0.00000E+00  9.000E+00
      21    -1     0     0   501   502  0.000000000E+00  0.000000000E+00 -1.301221581E+02  1.301221581E+02  0.000000000E+00  0.00000E+00  9.000E+00
      25     1     1     2     0     0 -1.483444070E+02  5.971703660E+01  2.928874880E+02  3.563429082E+02  1.250000000E+02  0.00000E+00  9.000E+00
      25     1     1     2     0     0  1.195461981E+02 -9.106261604E+01  1.566678521E+01  1.960972761E+02  1.250000000E+02  0.00000E+00  9.000E+00
      21     1     1     2   512   502  2.879820893E+01  3.134557944E+01  4.720156811E+01  6.355997342E+01  9.536743164E-07  0.00000E+00  9.000E+00
#rwgt            1           1   3.8809850630460350E-002           8       15912           0
</event>
<event>
      5   9999  3.79277E-02  5.69126E+01 -1.00000E+00  1.35941E-01
      21    -1     0     0   502   501  0.000000000E+00  0.000000000E+00  6.314609191E+02  6.314609191E+02  0.000000000E+00  0.00000E+00  9.000E+00
      21    -1     0     0   501   511  0.000000000E+00  0.000000000E+00 -1.873227103E+03  1.873227103E+03  0.000000000E+00  0.00000E+00  9.000E+00
      25     1     1     2     0     0  1.533563825E+02 -7.207418428E+01  2.416662848E+02  3.205315293E+02  1.250000000E+02  0.00000E+00  9.000E+00
      25     1     1     2     0     0 -1.806350221E+02  2.212506088E+01  3.150863135E+02  3.847374618E+02  1.250000000E+02  0.00000E+00  9.000E+00
      21     1     1     2   502   511  2.727863963E+01  4.994912341E+01 -1.798518782E+03  1.799419031E+03  3.051757812E-05  0.00000E+00  9.000E+00
#rwgt            1           1   3.4957059886291018E-002           8       16009           0
</event>
<event>
      5   9999  4.37302E-02  2.31201E+01 -1.00000E+00  1.61337E-01
      21    -1     0     0   502   501  0.000000000E+00  0.000000000E+00  5.293185024E+02  5.293185024E+02  0.000000000E+00  0.00000E+00  9.000E+00
      21    -1     0     0   501   512  0.000000000E+00  0.000000000E+00 -6.190965260E+02  6.190965260E+02  0.000000000E+00  0.00000E+00  9.000E+00
      25     1     1     2     0     0  2.708893063E+02 -3.151344001E+02 -8.032371577E+01  4.413248301E+02  1.250000000E+02  0.00000E+00  9.000E+00
      25     1     1     2     0     0 -2.938436237E+02  3.178982818E+02  2.024145370E+02  4.939635994E+02  1.250000000E+02  0.00000E+00  9.000E+00
      21     1     1     2   502   512  2.295431743E+01 -2.763881763E+00 -2.118688449E+02  2.131265989E+02  2.697398305E-06  0.00000E+00  9.000E+00
#rwgt            1           1  0.68429934969468342                8       16109           0
</event>
<event>
      5   9999  3.79277E-02  4.26726E+01 -1.00000E+00  1.43119E-01
      21    -1     0     0   511   501  0.000000000E+00  0.000000000E+00  2.684010729E+02  2.684010729E+02  0.000000000E+00  0.00000E+00  9.000E+00
      21    -1     0     0   501   502  0.000000000E+00  0.000000000E+00 -2.048112656E+02  2.048112656E+02  0.000000000E+00  0.00000E+00  9.000E+00
      25     1     1     2     0     0 -1.428218476E+02  8.264782613E+01 -9.012634366E+00  2.072075551E+02  1.250000000E+02  0.00000E+00  9.000E+00
      25     1     1     2     0     0  1.661465731E+02 -4.691391735E+01  5.787508664E+01  2.208622310E+02  1.250000000E+02  0.00000E+00  9.000E+00
      21     1     1     2   511   502 -2.332472550E+01 -3.573390877E+01  1.472735497E+01  4.514255244E+01  2.920019320E-07  0.00000E+00  9.000E+00
#rwgt            1           1   4.2591358280906585E-002           8       16303           0
</event>
<event>
      5   9999  3.79277E-02  1.94947E+01 -1.00000E+00  1.67291E-01
      21    -1     0     0   502   501  0.000000000E+00  0.000000000E+00  5.605122980E+01  5.605122980E+01  0.000000000E+00  0.00000E+00  9.000E+00
      21    -1     0     0   512   502  0.000000000E+00  0.000000000E+00 -1.668980964E+03  1.668980964E+03  0.000000000E+00  0.00000E+00  9.000E+00
      25     1     1     2     0     0  2.284129131E+01 -2.243136462E+02 -8.808051992E+02  9.177587567E+02  1.250000000E+02  0.00000E+00  9.000E+00
      25     1     1     2     0     0 -2.944489505E+01  2.426557945E+02 -4.691449832E+02  5.435723058E+02  1.250000000E+02  0.00000E+00  9.000E+00
      21     1     1     2   512   501  6.603603740E+00 -1.834214823E+01 -2.629795518E+02  2.637011313E+02  0.000000000E+00  0.00000E+00  9.000E+00
#rwgt            1           1   3.8469935672617368E-002           8       16399           0
</event>
<event>
      5   9999  3.79277E-02  3.76770E+01 -1.00000E+00  1.46470E-01
      21    -1     0     0   502   501  0.000000000E+00  0.000000000E+00  4.902038724E+01  4.902038724E+01  0.000000000E+00  0.00000E+00  9.000E+00
      21    -1     0     0   511   502  0.000000000E+00  0.000000000E+00 -8.764787508E+02  8.764787508E+02  0.000000000E+00  0.00000E+00  9.000E+00
      25     1     1     2     0     0 -9.765060955E+01  3.681248416E+00 -1.346357082E+02  2.080888442E+02  1.250000000E+02  0.00000E+00  9.000E+00
      25     1     1     2     0     0  7.080072549E+01  2.275056379E+01 -5.966037149E+02  6.140776201E+02  1.250000000E+02  0.00000E+00  9.000E+00
      21     1     1     2   511   501  2.684988406E+01 -2.643181221E+01 -9.621894036E+01  1.033326737E+02  1.348699152E-06  0.00000E+00  9.000E+00
#rwgt            1           1   3.8808358758127555E-002           8       16651           0
</event>
<event>
      5   9999 -3.79277E-02  2.53948E+01 -1.00000E+00  1.58243E-01
       1    -1     0     0   502     0  0.000000000E+00  0.000000000E+00  5.626889237E+02  5.626889237E+02  0.000000000E+00  0.00000E+00  9.000E+00
      21    -1     0     0   501   502  0.000000000E+00  0.000000000E+00 -3.630869765E+02  3.630869765E+02  0.000000000E+00  0.00000E+00  9.000E+00
      25     1     1     2     0     0 -9.259148073E+01 -1.256175013E+02 -1.304627514E+01  2.003700183E+02  1.250000000E+02  0.00000E+00  9.000E+00
      25     1     1     2     0     0  1.052144234E+02  1.035821317E+02 -2.194597031E+02  2.925523785E+02  1.250000000E+02  0.00000E+00  9.000E+00
       1     1     1     2   501     0 -1.262294262E+01  2.203536955E+01  4.321079254E+02  4.328535034E+02  0.000000000E+00  0.00000E+00  9.000E+00
#rwgt            1           1  -5.8592346956488642E-002           8       16914           0
</event>
<event>
      5   9999  3.79277E-02  4.87374E+01 -1.00000E+00  1.39712E-01
      21    -1     0     0   502   511  0.000000000E+00  0.000000000E+00  2.384078488E+02  2.384078488E+02  0.000000000E+00  0.00000E+00  9.000E+00
      21    -1     0     0   501   502  0.000000000E+00  0.000000000E+00 -2.964826080E+02  2.964826080E+02  0.000000000E+00  0.00000E+00  9.000E+00
      25     1     1     2     0     0  1.004710886E+02  1.930795834E+02 -6.991436865E+01  2.605516918E+02  1.250000000E+02  0.00000E+00  9.000E+00
      25     1     1     2     0     0 -5.480800517E+01 -1.760437756E+02 -4.890300316E+00  2.228098817E+02  1.250000000E+02  0.00000E+00  9.000E+00
      21     1     1     2   501   511 -4.566308339E+01 -1.703580777E+01  1.672990971E+01  5.152888326E+01  6.307962682E-07  0.00000E+00  9.000E+00
#rwgt            1           1   3.6574601234170716E-002           8       16995           0
</event>
<event>
      5   9999  3.79277E-02  1.00112E+02 -1.00000E+00  1.23806E-01
       1    -1     0     0   502     0  0.000000000E+00  0.000000000E+00  4.979785961E+02  4.979785961E+02  0.000000000E+00  0.00000E+00  9.000E+00
      21    -1     0     0   501   502  0.000000000E+00  0.000000000E+00 -1.716826581E+02  1.716826581E+02  0.000000000E+00  0.00000E+00  9.000E+00
      25     1     1     2     0     0  1.122398328E+01  1.239910909E+02  1.155231574E+02  2.108799856E+02  1.250000000E+02  0.00000E+00  9.000E+00
      25     1     1     2     0     0  8.243797536E+01 -8.863889374E+01 -4.867791840E+01  1.806859513E+02  1.250000000E+02  0.00000E+00  9.000E+00
       1     1     1     2   501     0 -9.366195864E+01 -3.535219716E+01  2.594506990E+02  2.780953173E+02  0.000000000E+00  0.00000E+00  9.000E+00
#rwgt            1           1   3.3946765626732628E-002           8       17195           0
</event>
<event>
      5   9999  3.79277E-02  2.48606E+02 -1.00000E+00  1.08313E-01
      21    -1     0     0   502   501  0.000000000E+00  0.000000000E+00  2.449168298E+02  2.449168298E+02  0.000000000E+00  0.00000E+00  9.000E+00
      21    -1     0     0   501   511  0.000000000E+00  0.000000000E+00 -8.898250357E+02  8.898250357E+02  0.000000000E+00  0.00000E+00  9.000E+00
      25     1     1     2     0     0  1.620068021E+02 -2.409130284E+02  3.986413911E+01  3.185897688E+02  1.250000000E+02  0.00000E+00  9.000E+00
      25     1     1     2     0     0  6.133807676E+01  1.317258489E+02 -2.461569662E+02  3.119812669E+02  1.250000000E+02  0.00000E+00  9.000E+00
      21     1     1     2   502   511 -2.233448788E+02  1.091871795E+02 -4.386153789E+02  5.041708298E+02  7.629394531E-06  0.00000E+00  9.000E+00
#rwgt            1           1   3.4172471843712318E-002           8       17372           0
</event>
<event>
      5   9999  3.79277E-02  1.80728E+01 -1.00000E+00  1.70084E-01
      21    -1     0     0   512   501  0.000000000E+00  0.000000000E+00  2.928338518E+02  2.928338518E+02  0.000000000E+00  0.00000E+00  9.000E+00
      21    -1     0     0   501   502  0.000000000E+00  0.000000000E+00 -3.579256971E+02  3.579256971E+02  0.000000000E+00  0.00000E+00  9.000E+00
      25     1     1     2     0     0 -1.590936903E+02  2.352013760E+02 -3.742114223E+01  3.124993304E+02  1.250000000E+02  0.00000E+00  9.000E+00
      25     1     1     2     0     0  1.420072907E+02 -2.410905351E+02 -4.895042015E+01  3.103415221E+02  1.250000000E+02  0.00000E+00  9.000E+00
      21     1     1     2   512   502  1.708639969E+01  5.889159026E+00  2.127971710E+01  2.791869640E+01  4.129530925E-07  0.00000E+00  9.000E+00
#rwgt            1           1   2.9282399392629405E-002           8       17536           0
</event>
<event>
      5   9999 -3.79277E-02  3.26494E+01 -1.00000E+00  1.50530E-01
      21    -1     0     0   511   501  0.000000000E+00  0.000000000E+00  3.032077192E+02  3.032077192E+02  0.000000000E+00  0.00000E+00  9.000E+00
      21    -1     0     0   501   502  0.000000000E+00  0.000000000E+00 -4.121718657E+02  4.121718657E+02  0.000000000E+00  0.00000E+00  9.000E+00
      25     1     1     2     0     0 -2.194043709E+02 -1.952247943E+02 -7.753824079E+01  3.284633573E+02  1.250000000E+02  0.00000E+00  9.000E+00
      25     1     1     2     0     0  2.382998601E+02  2.218508135E+02 -4.482713398E+01  3.516234900E+02  1.250000000E+02  0.00000E+00  9.000E+00
      21     1     1     2   511   502 -1.889548918E+01 -2.662601919E+01  1.340122828E+01  3.529273762E+01  1.685873940E-07  0.00000E+00  9.000E+00
#rwgt            1           1  -7.9524654739775116E-002           8       17768           0
</event>
<event>
      5   9999  3.79277E-02  3.46687E+01 -1.00000E+00  1.48801E-01
      21    -1     0     0   502   512  0.000000000E+00  0.000000000E+00  8.978908138E+02  8.978908138E+02  0.000000000E+00  0.00000E+00  9.000E+00
      21    -1     0     0   501   502  0.000000000E+00  0.000000000E+00 -8.156294264E+01  8.156294264E+01  0.000000000E+00  0.00000E+00  9.000E+00
      25     1     1     2     0     0  7.849411615E+01  1.562378119E+01  3.687883837E+02  3.975365401E+02  1.250000000E+02  0.00000E+00  9.000E+00
      25     1     1     2     0     0 -5.446947095E+01 -4.061849945E+01  9.588722903E+00  1.425963862E+02  1.250000000E+02  0.00000E+00  9.000E+00
      21     1     1     2   501   512 -2.402464520E+01  2.499471826E+01  4.379507646E+02  4.393208300E+02  7.629394531E-06  0.00000E+00  9.000E+00
#rwgt            1           1   3.3889305083574510E-002           8       17925           0
</event>
<event>
      5   9999  3.79277E-02  1.10211E+02 -1.00000E+00  1.21958E-01
      21    -1     0     0   502   501  0.000000000E+00  0.000000000E+00  6.475368677E+02  6.475368677E+02  0.000000000E+00  0.00000E+00  9.000E+00
      21    -1     0     0   511   502  0.000000000E+00  0.000000000E+00 -1.915510541E+02  1.915510541E+02  0.000000000E+00  0.00000E+00  9.000E+00
      25     1     1     2     0     0 -3.081101533E+02 -5.326840968E+01  2.762187922E+02  4.355355453E+02  1.250000000E+02  0.00000E+00  9.000E+00
      25     1     1     2     0     0  2.007254721E+02  7.806928675E+01  1.441324780E+02  2.877233044E+02  1.250000000E+02  0.00000E+00  9.000E+00
      21     1     1     2   511   501  1.073846813E+02 -2.480087706E+01  3.563454334E+01  1.158290721E+02  1.784161275E-06  0.00000E+00  9.000E+00
#rwgt            1           1   2.4205091051963171E-002           8       18047           0
</event>
<event>
      5   9999  3.79277E-02  2.58223E+01 -1.00000E+00  1.57705E-01
      21    -1     0     0   502   501  0.000000000E+00  0.000000000E+00  1.735684686E+02  1.735684686E+02  0.000000000E+00  0.00000E+00  9.000E+00
      21    -1     0     0   501   512  0.000000000E+00  0.000000000E+00 -3.432699408E+02  3.432699408E+02  0.000000000E+00  0.00000E+00  9.000E+00
      25     1     1     2     0     0 -6.077816735E+01  4.323439016E+01 -2.453678439E+02  2.852955957E+02  1.250000000E+02  0.00000E+00  9.000E+00
      25     1     1     2     0     0  8.240456062E+01 -5.734429578E+01  1.056253973E+02  1.919911571E+02  1.250000000E+02  0.00000E+00  9.000E+00
      21     1     1     2   502   512 -2.162639327E+01  1.410990562E+01 -2.995902565E+01  3.955165660E+01  4.768371582E-07  0.00000E+00  9.000E+00
#rwgt            1           1   4.4513063287880218E-002           8       18294           0
</event>
<event>
      5   9999  3.79277E-02  1.87515E+01 -1.00000E+00  1.68712E-01
      21    -1     0     0   511   501  0.000000000E+00  0.000000000E+00  1.368112917E+03  1.368112917E+03  0.000000000E+00  0.00000E+00  9.000E+00
      21    -1     0     0   501   502  0.000000000E+00  0.000000000E+00 -1.590838106E+02  1.590838106E+02  0.000000000E+00  0.00000E+00  9.000E+00
      25     1     1     2     0     0  1.989398508E+02  8.113346780E+01  5.198326377E+02  5.762036750E+02  1.250000000E+02  0.00000E+00  9.000E+00
      25     1     1     2     0     0 -1.872969266E+02 -9.583254673E+01 -1.628392629E+01  2.452634950E+02  1.250000000E+02  0.00000E+00  9.000E+00
      21     1     1     2   511   502 -1.164292415E+01  1.469907893E+01  7.054803946E+02  7.057295571E+02  7.629394531E-06  0.00000E+00  9.000E+00
#rwgt            1           1  0.13761952995746130                8       18486           0
</event>
<event>
      5   9999  3.79277E-02  3.51603E+01 -1.00000E+00  1.48401E-01
      21    -1     0     0   512   501  0.000000000E+00  0.000000000E+00  1.353316531E+02  1.353316531E+02  0.000000000E+00  0.00000E+00  9.000E+00
      21    -1     0     0   501   502  0.000000000E+00  0.000000000E+00 -4.896325732E+02  4.896325732E+02  0.000000000E+00  0.00000E+00  9.000E+00
      25     1     1     2     0     0  1.349812292E+02 -3.739375266E+01 -2.981734829E+02  3.523501822E+02  1.250000000E+02  0.00000E+00  9.000E+00
      25     1     1     2     0     0 -1.674698468E+02  2.394991081E+01 -8.524595271E+01  2.269617155E+02  1.250000000E+02  0.00000E+00  9.000E+00
      21     1     1     2   512   502  3.248861767E+01  1.344384184E+01  2.911851556E+01  4.565232864E+01  6.743495762E-07  0.00000E+00  9.000E+00
#rwgt            2          11   1.2281546657467628E-003           8       18824           0
</event>
<event>
      5   9999  3.79277E-02  2.55587E+01 -1.00000E+00  1.58035E-01
      21    -1     0     0   502   501  0.000000000E+00  0.000000000E+00  9.049928286E+01  9.049928286E+01  0.000000000E+00  0.00000E+00  9.000E+00
       1    -1     0     0   501     0  0.000000000E+00  0.000000000E+00 -1.025364842E+03  1.025364842E+03  0.000000000E+00  0.00000E+00  9.000E+00
      25     1     1     2     0     0  8.477452268E+01 -4.386123388E+00 -5.446975541E+02  5.652666479E+02  1.250000000E+02  0.00000E+00  9.000E+00
      25     1     1     2     0     0 -9.821217873E+01 -1.735502080E+01 -3.197133656E-01  1.599122604E+02  1.250000000E+02  0.00000E+00  9.000E+00
       1     1     1     2   502     0  1.343765605E+01  2.174114419E+01 -3.898482914E+02  3.906852164E+02  7.629394531E-06  0.00000E+00  9.000E+00
#rwgt            1           1   5.0669388091010473E-002           8       18904           0
</event>
<event>
      5   9999  3.79277E-02  1.10549E+02 -1.00000E+00  1.21900E-01
      21    -1     0     0   502   511  0.000000000E+00  0.000000000E+00  4.875358977E+02  4.875358977E+02  0.000000000E+00  0.00000E+00  9.000E+00
      21    -1     0     0   501   502  0.000000000E+00  0.000000000E+00 -2.003878524E+02  2.003878524E+02  0.000000000E+00  0.00000E+00  9.000E+00
      25     1     1     2     0     0  2.735181857E+02 -1.046404217E+01  8.511029661E+01  3.127146570E+02  1.250000000E+02  0.00000E+00  9.000E+00
      25     1     1     2     0     0 -1.631708904E+02  3.788852296E+00  1.286308493E+02  2.425077118E+02  1.250000000E+02  0.00000E+00  9.000E+00
      21     1     1     2   501   511 -1.103472953E+02  6.675189872E+00  7.340689937E+01  1.327013813E+02  1.907348633E-06  0.00000E+00  9.000E+00
#rwgt            1           1   3.3453473599401512E-002           8       19020           0
</event>
<event>
      5   9999  3.79277E-02  6.88264E+01 -1.00000E+00  1.31594E-01
      21    -1     0     0   502   512  0.000000000E+00  0.000000000E+00  6.913733184E+02  6.913733184E+02  0.000000000E+00  0.00000E+00  9.000E+00
      21    -1     0     0   501   502  0.000000000E+00  0.000000000E+00 -8.809982555E+01  8.809982555E+01  0.000000000E+00  0.00000E+00  9.000E+00
      25     1     1     2     0     0  3.952511107E+01  1.182340290E+02  2.497079068E+02  3.058113123E+02  1.250000000E+02  0.00000E+00  9.000E+00
      25     1     1     2     0     0 -9.926610981E+01 -1.524112396E+02  1.729973597E+02  2.804211707E+02  1.250000000E+02  0.00000E+00  9.000E+00
      21     1     1     2   501   512  5.974099874E+01  3.417721064E+01  1.805682263E+02  1.932406609E+02  1.907348633E-06  0.00000E+00  9.000E+00
#rwgt            1           1   2.4840676773299326E-002           8       19075           0
</event>
<event>
      5   9999  3.79277E-02  2.58257E+01 -1.00000E+00  1.57701E-01
       1    -1     0     0   502     0  0.000000000E+00  0.000000000E+00  3.520632964E+02  3.520632964E+02  0.000000000E+00  0.00000E+00  9.000E+00
      21    -1     0     0   501   502  0.000000000E+00  0.000000000E+00 -1.265265233E+02  1.265265233E+02  0.000000000E+00  0.00000E+00  9.000E+00
      25     1     1     2     0     0  1.252011281E+02 -8.662912360E+01  1.328879540E+02  2.376218337E+02  1.250000000E+02  0.00000E+00  9.000E+00
      25     1     1     2     0     0 -1.064142089E+02  1.043497190E+02  9.188870865E+01  2.151310821E+02  1.250000000E+02  0.00000E+00  9.000E+00
       1     1     1     2   501     0 -1.878691913E+01 -1.772059542E+01  7.601104065E-01  2.583690384E+01  4.421654381E-07  0.00000E+00  9.000E+00
#rwgt            1           1   3.5907300698443799E-002           8       19185           0
</event>
<event>
      5   9999  3.79277E-02  9.60831E+01 -1.00000E+00  1.24613E-01
      21    -1     0     0   502   501  0.000000000E+00  0.000000000E+00  2.961543442E+02  2.961543442E+02  0.000000000E+00  0.00000E+00  9.000E+00
      21    -1     0     0   501   511  0.000000000E+00  0.000000000E+00 -3.485091210E+02  3.485091210E+02  0.000000000E+00  0.00000E+00  9.000E+00
      25     1     1     2     0     0 -1.094088847E+02  3.619453836E+01 -3.997737412E+01  1.746526241E+02  1.250000000E+02  0.00000E+00  9.000E+00
      25     1     1     2     0     0  2.028512406E+01 -7.209612184E+01  1.938421778E+02  2.425059317E+02  1.250000000E+02  0.00000E+00  9.000E+00
      21     1     1     2   502   511  8.912376065E+01  3.590158348E+01 -2.062195804E+02  2.275049093E+02  0.000000000E+00  0.00000E+00  9.000E+00
#rwgt            1           1   3.9817255990945336E-002           8       19391           0
</event>
<event>
      5   9999  3.79277E-02  4.80344E+01 -1.00000E+00  1.40077E-01
       3    -1     0     0   502     0  0.000000000E+00  0.000000000E+00  1.681411697E+03  1.681411697E+03  0.000000000E+00  0.00000E+00  9.000E+00
      21    -1     0     0   501   502  0.000000000E+00  0.000000000E+00 -4.100817815E+01  4.100817815E+01  0.000000000E+00  0.00000E+00  9.000E+00
      25     1     1     2     0     0  1.975029658E+01 -1.379065088E+02  5.697679229E+02  5.997239076E+02  1.250000000E+02  0.00000E+00  9.000E+00
      25     1     1     2     0     0 -4.728162165E+01  9.854501022E+01  2.467873806E+02  2.974486208E+02  1.250000000E+02  0.00000E+00  9.000E+00
       3     1     1     2   501     0  2.753132507E+01  3.936149854E+01  8.238482156E+02  8.252473471E+02  0.000000000E+00  0.00000E+00  9.000E+00
#rwgt            1           1  0.12168303631751365                8       19730           0
</event>
<event>
      5   9999  3.79277E-02  3.29341E+01 -1.00000E+00  1.50277E-01
      21    -1     0     0   502   511  0.000000000E+00  0.000000000E+00  1.370549212E+02  1.370549212E+02  0.000000000E+00  0.00000E+00  9.000E+00
      21    -1     0     0   501   502  0.000000000E+00  0.000000000E+00 -4.611268005E+02  4.611268005E+02  0.000000000E+00  0.00000E+00  9.000E+00
      25     1     1     2     0     0 -7.431760540E+01 -5.241513860E+01 -3.586147317E+02  3.905124569E+02  1.250000000E+02  0.00000E+00  9.000E+00
      25     1     1     2     0     0  7.300680492E+01  8.532315867E+01  4.343495919E+01  1.735558430E+02  1.250000000E+02  0.00000E+00  9.000E+00
      21     1     1     2   501   511  1.310800476E+00 -3.290802007E+01 -8.892106731E+00  3.411342177E+01  2.384185791E-07  0.00000E+00  9.000E+00
#rwgt            1           1   3.8089504157709564E-002           8       19828           0
</event>
<event>
      5   9999  3.79277E-02  1.17634E+01 -1.00000E+00  1.87942E-01
      21    -1     0     0   512   501  0.000000000E+00  0.000000000E+00  1.771276140E+02  1.771276140E+02  0.000000000E+00  0.00000E+00  9.000E+00
      21    -1     0     0   501   502  0.000000000E+00  0.000000000E+00 -3.084136753E+02  3.084136753E+02  0.000000000E+00  0.00000E+00  9.000E+00
      25     1     1     2     0     0  1.241115277E+01  1.601201472E+02  3.695820653E+01  2.068415028E+02  1.250000000E+02  0.00000E+00  9.000E+00
      25     1     1     2     0     0 -1.942498076E+01 -1.506764585E+02 -1.765176213E+02  2.643183605E+02  1.250000000E+02  0.00000E+00  9.000E+00
      21     1     1     2   512   502  7.013827993E+00 -9.443688663E+00  8.273353448E+00  1.438142608E+01  1.192092896E-07  0.00000E+00  9.000E+00
#rwgt            1           1   3.4629278249659952E-002           8       20161           0
</event>
<event>
      5   9999  3.79277E-02  3.36542E+01 -1.00000E+00  1.49652E-01
      21    -1     0     0   502   501  0.000000000E+00  0.000000000E+00  2.388390121E+02  2.388390121E+02  0.000000000E+00  0.00000E+00  9.000E+00
      21    -1     0     0   501   511  0.000000000E+00  0.000000000E+00 -4.569818189E+02  4.569818189E+02  0.000000000E+00  0.00000E+00  9.000E+00
      25     1     1     2     0     0 -1.777982927E+02 -2.912492959E+01 -1.055773883E+02  2.433764149E+02  1.250000000E+02  0.00000E+00  9.000E+00
      25     1     1     2     0     0  1.464175264E+02  1.696540119E+01  1.133395670E+02  2.240463665E+02  1.250000000E+02  0.00000E+00  9.000E+00
      21     1     1     2   502   511  3.138076623E+01  1.215952840E+01 -2.259049855E+02  2.283980497E+02  2.697398305E-06  0.00000E+00  9.000E+00
#rwgt            1           1   3.7791941179180139E-002           8       20456           0
</event>
<event>
      5   9999  3.79277E-02  1.94646E+02 -1.00000E+00  1.12079E-01
      21    -1     0     0   512   501  0.000000000E+00  0.000000000E+00  4.697251675E+02  4.697251675E+02  0.000000000E+00  0.00000E+00  9.000E+00
      21    -1     0     0   501   502  0.000000000E+00  0.000000000E+00 -2.066060419E+02  2.066060419E+02  0.000000000E+00  0.00000E+00  9.000E+00
      25     1     1     2     0     0 -1.605829376E+02 -1.842144590E+02  1.624672315E+02  3.189709204E+02  1.250000000E+02  0.00000E+00  9.000E+00
      25     1     1     2     0     0  8.280860992E+00  6.300774917E+01  4.592940379E+00  1.403019751E+02  1.250000000E+02  0.00000E+00  9.000E+00
      21     1     1     2   512   502  1.523020766E+02  1.212067099E+02  9.605895371E+01  2.170583139E+02  2.336015456E-06  0.00000E+00  9.000E+00
#rwgt            1           1   2.8516663940494999E-002           8       20683           0
</event>
<event>
      5   9999  3.79277E-02  2.64152E+01 -1.00000E+00  1.56980E-01
      21    -1     0     0   511   501  0.000000000E+00  0.000000000E+00  5.640606455E+01  5.640606455E+01  0.000000000E+00  0.00000E+00  9.000E+00
      21    -1     0     0   501   502  0.000000000E+00  0.000000000E+00 -8.505041054E+02  8.505041054E+02  0.000000000E+00  0.00000E+00  9.000E+00
      25     1     1     2     0     0 -1.327277656E+02 -5.663735145E+01 -4.381123474E+02  4.779036286E+02  1.250000000E+02  0.00000E+00  9.000E+00
      25     1     1     2     0     0  1.322798964E+02  8.304877823E+01 -3.480138148E+02  4.014146059E+02  1.250000000E+02  0.00000E+00  9.000E+00
      21     1     1     2   511   502  4.478691520E-01 -2.641142678E+01 -7.971878716E+00  2.759193544E+01  4.214684851E-07  0.00000E+00  9.000E+00
#rwgt            1           1   4.2150102706232449E-002           8       20749           0
</event>
<event>
      5   9999  3.79277E-02  5.27266E+01 -1.00000E+00  1.37772E-01
      21    -1     0     0   512   501  0.000000000E+00  0.000000000E+00  2.590211470E+02  2.590211470E+02  0.000000000E+00  0.00000E+00  9.000E+00
      21    -1     0     0   501   502  0.000000000E+00  0.000000000E+00 -2.422629363E+02  2.422629363E+02  0.000000000E+00  0.00000E+00  9.000E+00
      25     1     1     2     0     0 -1.082818296E+02 -2.590629209E+01  1.045262658E+02  1.973495144E+02  1.250000000E+02  0.00000E+00  9.000E+00
      25     1     1     2     0     0  1.597747515E+02  1.456718292E+01 -1.255988924E+02  2.390402807E+02  1.250000000E+02  0.00000E+00  9.000E+00
      21     1     1     2   512   502 -5.149292191E+01  1.133910917E+01  3.783083719E+01  6.489428824E+01  4.768371582E-07  0.00000E+00  9.000E+00
#rwgt            1           1   3.5108875225117117E-002           8       20946           0
</event>
<event>
      5   9999  3.79277E-02  2.55431E+01 -1.00000E+00  1.58055E-01
      21    -1     0     0   502   511  0.000000000E+00  0.000000000E+00  2.114997802E+03  2.114997802E+03  0.000000000E+00  0.00000E+00  9.000E+00
      21    -1     0     0   501   502  0.000000000E+00  0.000000000E+00 -4.195943567E+01  4.195943567E+01  0.000000000E+00  0.00000E+00  9.000E+00
      25     1     1     2     0     0 -1.253570509E+02  1.684078598E+02  5.961987686E+02  6.443241181E+02  1.250000000E+02  0.00000E+00  9.000E+00
      25     1     1     2     0     0  1.191952115E+02 -1.931966325E+02  9.366173463E+02  9.718073321E+02  1.250000000E+02  0.00000E+00  9.000E+00
      21     1     1     2   501   511  6.161839338E+00  2.478877275E+01  5.402222510E+02  5.408257871E+02  7.629394531E-06  0.00000E+00  9.000E+00
#rwgt            1           1   3.7481310693270445E-002           8       21074           0
</event>
<event>
      5   9999  3.79277E-02  3.25700E+01 -1.00000E+00  1.50601E-01
      21    -1     0     0   502   512  0.000000000E+00  0.000000000E+00  6.276140156E+02  6.276140156E+02  0.000000000E+00  0.00000E+00  9.000E+00
      21    -1     0     0   501   502  0.000000000E+00  0.000000000E+00 -2.507731847E+02  2.507731847E+02  0.000000000E+00  0.00000E+00  9.000E+00
      25     1     1     2     0     0  1.170286838E+02  3.004907534E+01  1.398234120E+02  2.231014260E+02  1.250000000E+02  0.00000E+00  9.000E+00
      25     1     1     2     0     0 -8.571161277E+01 -3.899580110E+01 -1.791304862E+02  2.378652647E+02  1.250000000E+02  0.00000E+00  9.000E+00
      21     1     1     2   501   512 -3.131707105E+01  8.946725765E+00  4.161479052E+02  4.174205096E+02  0.000000000E+00  0.00000E+00  9.000E+00
#rwgt            1           1   4.1022956842346588E-002           8       21210           0
</event>
<event>
      5   9999  3.79277E-02  1.88564E+01 -1.00000E+00  1.68507E-01
      21    -1     0     0   502   501  0.000000000E+00  0.000000000E+00  8.793868915E+02  8.793868915E+02  0.000000000E+00  0.00000E+00  9.000E+00
      21    -1     0     0   501   511  0.000000000E+00  0.000000000E+00 -1.313935503E+02  1.313935503E+02  0.000000000E+00  0.00000E+00  9.000E+00
      25     1     1     2     0     0 -1.467210050E+02 -8.316701013E+01  3.899114233E+02  4.428314837E+02  1.250000000E+02  0.00000E+00  9.000E+00
      25     1     1     2     0     0  1.278681987E+02  8.279906570E+01  4.409417749E+02  4.829706102E+02  1.250000000E+02  0.00000E+00  9.000E+00
      21     1     1     2   502   511  1.885280633E+01  3.679444332E-01 -8.285985706E+01  8.497834784E+01  2.336015456E-06  0.00000E+00  9.000E+00
#rwgt            1           1   2.1036905775997917E-002           8       21400           0
</event>
<event>
      5   9999  3.79277E-02  1.03484E+02 -1.00000E+00  1.23163E-01
      21    -1     0     0   502   512  0.000000000E+00  0.000000000E+00  1.167115364E+03  1.167115364E+03  0.000000000E+00  0.00000E+00  9.000E+00
      21    -1     0     0   501   502  0.000000000E+00  0.000000000E+00 -5.246085960E+01  5.246085960E+01  0.000000000E+00  0.00000E+00  9.000E+00
      25     1     1     2     0     0  1.536463053E+02 -7.799475890E+01  3.052032669E+02  3.721080537E+02  1.250000000E+02  0.00000E+00  9.000E+00
      25     1     1     2     0     0 -7.068251183E+01  1.613978079E+01  4.057365987E+02  4.307014018E+02  1.250000000E+02  0.00000E+00  9.000E+00
      21     1     1     2   501   512 -8.296379346E+01  6.185497810E+01  4.037146386E+02  4.167667678E+02  5.394796609E-06  0.00000E+00  9.000E+00
#rwgt            1           1   3.2748553657525818E-002           8       21600           0
</event>
<event>
      5   9999  3.79277E-02  1.36826E+01 -1.00000E+00  1.81229E-01
      21    -1     0     0   511   501  0.000000000E+00  0.000000000E+00  1.378926586E+02  1.378926586E+02  0.000000000E+00  0.00000E+00  9.000E+00
      21    -1     0     0   501   502  0.000000000E+00  0.000000000E+00 -2.575070570E+02  2.575070570E+02  0.000000000E+00  0.00000E+00  9.000E+00
      25     1     1     2     0     0  1.122981797E+02 -3.570540963E+01 -4.861957871E+01  1.785346490E+02  1.250000000E+02  0.00000E+00  9.000E+00
      25     1     1     2     0     0 -1.189750792E+02  4.764830209E+01 -8.420985502E+01  1.978426897E+02  1.250000000E+02  0.00000E+00  9.000E+00
      21     1     1     2   511   502  6.676899462E+00 -1.194289246E+01  1.321503539E+01  1.902237701E+01  1.685873940E-07  0.00000E+00  9.000E+00
#rwgt            1           1   4.6228144174993310E-002           8       21688           0
</event>
<event>
      5   9999  3.79277E-02  5.56168E+01 -1.00000E+00  1.36488E-01
      21    -1     0     0   502   501  0.000000000E+00  0.000000000E+00  7.309656895E+01  7.309656895E+01  0.000000000E+00  0.00000E+00  9.000E+00
       2    -1     0     0   501     0  0.000000000E+00  0.000000000E+00 -2.818661642E+03  2.818661642E+03  0.000000000E+00  0.00000E+00  9.000E+00
      25     1     1     2     0     0 -1.173178744E+02  1.018893408E+02 -3.629483406E+02  4.141272986E+02  1.250000000E+02  0.00000E+00  9.000E+00
      25     1     1     2     0     0  6.491464343E+01 -8.325802464E+01 -9.471816432E+01  1.890564473E+02  1.250000000E+02  0.00000E+00  9.000E+00
       2     1     1     2   502     0  5.240323101E+01 -1.863131619E+01 -2.287898568E+03  2.288574465E+03  3.051757812E-05  0.00000E+00  9.000E+00
#rwgt            1           1   4.3664357319159956E-002           8       21968           0
</event>
<event>
      5   9999  3.79277E-02  1.23406E+02 -1.00000E+00  1.19855E-01
       2    -1     0     0   502     0  0.000000000E+00  0.000000000E+00  4.787405266E+02  4.787405266E+02  0.000000000E+00  0.00000E+00  9.000E+00
      21    -1     0     0   501   502  0.000000000E+00  0.000000000E+00 -3.435738186E+02  3.435738186E+02  0.000000000E+00  0.00000E+00  9.000E+00
      25     1     1     2     0     0  1.037570476E+01  2.664371103E+01 -1.312429952E+02  1.834864202E+02  1.250000000E+02  0.00000E+00  9.000E+00
      25     1     1     2     0     0  8.487786794E+01 -1.051022132E+02 -1.289012916E+02  2.247026272E+02  1.250000000E+02  0.00000E+00  9.000E+00
       2     1     1     2   501     0 -9.525357270E+01  7.845850218E+01  3.953109948E+02  4.141252978E+02  0.000000000E+00  0.00000E+00  9.000E+00
#rwgt            1           1   4.6127472680938024E-002           8       22150           0
</event>
<event>
      5   9999  3.79277E-02  3.73680E+01 -1.00000E+00  1.46698E-01
      21    -1     0     0   511   501  0.000000000E+00  0.000000000E+00  2.032333408E+02  2.032333408E+02  0.000000000E+00  0.00000E+00  9.000E+00
      21    -1     0     0   501   502  0.000000000E+00  0.000000000E+00 -1.197431808E+03  1.197431808E+03  0.000000000E+00  0.00000E+00  9.000E+00
      25     1     1     2     0     0  4.322739124E+01 -1.516741427E+01 -4.012469982E+02  4.227562080E+02  1.250000000E+02  0.00000E+00  9.000E+00
      25     1     1     2     0     0 -5.388452201E+01 -2.064863320E+01 -7.775100052E+02  7.896054179E+02  1.250000000E+02  0.00000E+00  9.000E+00
      21     1     1     2   511   502  1.065713078E+01  3.581604747E+01  1.845585359E+02  1.883035232E+02  0.000000000E+00  0.00000E+00  9.000E+00
#rwgt            1           1   5.1681281309222324E-002           8       22569           0
</event>
<event>
      5   9999  3.79277E-02  6.00738E+01 -1.00000E+00  1.34675E-01
      21    -1     0     0   502   501  0.000000000E+00  0.000000000E+00  5.586587539E+02  5.586587539E+02  0.000000000E+00  0.00000E+00  9.000E+00
      21    -1     0     0   512   502  0.000000000E+00  0.000000000E+00 -2.979204994E+02  2.979204994E+02  0.000000000E+00  0.00000E+00  9.000E+00
      25     1     1     2     0     0  3.061475913E+02 -8.803112293E+01 -4.619437955E+01  3.453038473E+02  1.250000000E+02  0.00000E+00  9.000E+00
      25     1     1     2     0     0 -2.803185835E+02  1.422687649E+02  2.974320106E+02  4.504550040E+02  1.250000000E+02  0.00000E+00  9.000E+00
      21     1     1     2   512   501 -2.582900782E+01 -5.423764200E+01  9.500623494E+00  6.082040201E+01  1.233110479E-06  0.00000E+00  9.000E+00
#rwgt            1           1  0.21652130252494528                8       22758           0
</event>
<event>
      5   9999  3.79277E-02  7.37827E+01 -1.00000E+00  1.30073E-01
       2    -1     0     0   502     0  0.000000000E+00  0.000000000E+00  4.822620524E+02  4.822620524E+02  0.000000000E+00  0.00000E+00  9.000E+00
      21    -1     0     0   501   502  0.000000000E+00  0.000000000E+00 -1.189149837E+02  1.189149837E+02  0.000000000E+00  0.00000E+00  9.000E+00
      25     1     1     2     0     0 -6.999352079E+01 -5.131257816E+01  2.303978827E+02  2.761163848E+02  1.250000000E+02  0.00000E+00  9.000E+00
      25     1     1     2     0     0  6.741467684E+01 -2.242503596E+01 -2.937934999E+01  1.467506971E+02  1.250000000E+02  0.00000E+00  9.000E+00
       2     1     1     2   501     0  2.578843949E+00  7.373761411E+01  1.623285360E+02  1.783099542E+02  2.697398305E-06  0.00000E+00  9.000E+00
#rwgt            1           1   4.5119202173762946E-002           8       22997           0
</event>
<event>
      5   9999  3.79277E-02  2.98091E+01 -1.00000E+00  1.53233E-01
      21    -1     0     0   511   501  0.000000000E+00  0.000000000E+00  1.365850718E+03  1.365850718E+03  0.000000000E+00  0.00000E+00  9.000E+00
      21    -1     0     0   501   502  0.000000000E+00  0.000000000E+00 -6.461816721E+01  6.461816721E+01  0.000000000E+00  0.00000E+00  9.000E+00
      25     1     1     2     0     0  8.632238382E+00  1.121674136E+02  1.718885268E+02  2.404718484E+02  1.250000000E+02  0.00000E+00  9.000E+00
      25     1     1     2     0     0 -7.048458595E+00 -1.419343749E+02  2.677491092E+02  3.278866161E+02  1.250000000E+02  0.00000E+00  9.000E+00
      21     1     1     2   511   502 -1.583779787E+00  2.976696122E+01  8.615949151E+02  8.621104211E+02  0.000000000E+00  0.00000E+00  9.000E+00
#rwgt            1           1   3.1842417789650981E-002           8       23052           0
</event>
<event>
      5   9999  3.79277E-02  1.79743E+01 -1.00000E+00  1.70289E-01
      21    -1     0     0   512   501  0.000000000E+00  0.000000000E+00  3.475277402E+02  3.475277402E+02  0.000000000E+00  0.00000E+00  9.000E+00
      21    -1     0     0   501   502  0.000000000E+00  0.000000000E+00 -1.771339212E+02  1.771339212E+02  0.000000000E+00  0.00000E+00  9.000E+00
      25     1     1     2     0     0 -1.596395787E+00 -1.032514909E+02 -1.018772071E+02  1.914872951E+02  1.250000000E+02  0.00000E+00  9.000E+00
      25     1     1     2     0     0  4.324085384E+00  1.210175973E+02  2.456123217E+02  3.010222070E+02  1.250000000E+02  0.00000E+00  9.000E+00
      21     1     1     2   512   502 -2.727689597E+00 -1.776610642E+01  2.665870443E+01  3.215215934E+01  4.768371582E-07  0.00000E+00  9.000E+00
#rwgt            1           1   4.4906385605741395E-002           8       23116           0
</event>
<event>
      5   9999  3.79277E-02  3.01356E+01 -1.00000E+00  1.52904E-01
      21    -1     0     0   502   501  0.000000000E+00  0.000000000E+00  2.511910158E+02  2.511910158E+02  0.000000000E+00  0.00000E+00  9.000E+00
      21    -1     0     0   511   502  0.000000000E+00  0.000000000E+00 -3.646588629E+02  3.646588629E+02  0.000000000E+00  0.00000E+00  9.000E+00
      25     1     1     2     0     0  1.299055323E+02 -1.577726767E+02  3.002185342E+01  2.414414557E+02  1.250000000E+02  0.00000E+00  9.000E+00
      25     1     1     2     0     0 -1.373617429E+02  1.869712874E+02 -3.991923117E+01  2.665427841E+02  1.250000000E+02  0.00000E+00  9.000E+00
      21     1     1     2   511   501  7.456210665E+00 -2.919861070E+01 -1.035704694E+02  1.078656390E+02  1.907348633E-06  0.00000E+00  9.000E+00
#rwgt            1           1   3.5424727370433076E-002           8       23313           0
</event>
<event>
      5   9999  3.79277E-02  4.82602E+01 -1.00000E+00  1.39959E-01
      21    -1     0     0   502   501  0.000000000E+00  0.000000000E+00  1.677214856E+02  1.677214856E+02  0.000000000E+00  0.00000E+00  9.000E+00
       1    -1     0     0   501     0  0.000000000E+00  0.000000000E+00 -1.295657704E+03  1.295657704E+03  0.000000000E+00  0.00000E+00  9.000E+00
      25     1     1     2     0     0  8.911309303E+01 -8.224871150E+01 -9.977312865E+01  2.007129071E+02  1.250000000E+02  0.00000E+00  9.000E+00
      25     1     1     2     0     0 -1.100526787E+02  3.876791885E+01  5.408301718E+01  1.793446859E+02  1.250000000E+02  0.00000E+00  9.000E+00
       1     1     1     2   502     0  2.093958570E+01  4.348079265E+01 -1.082246107E+03  1.083321597E+03  2.157918644E-05  0.00000E+00  9.000E+00
#rwgt            1           1   3.3572274381291525E-002           8       23480           0
</event>
<event>
      5   9999  3.79277E-02  4.93578E+01 -1.00000E+00  1.39397E-01
      21    -1     0     0   511   501  0.000000000E+00  0.000000000E+00  2.036071341E+03  2.036071341E+03  0.000000000E+00  0.00000E+00  9.000E+00
      21    -1     0     0   501   502  0.000000000E+00  0.000000000E+00 -6.214101711E+01  6.214101711E+01  0.000000000E+00  0.00000E+00  9.000E+00
      25     1     1     2     0     0  1.623976871E+02 -3.681521124E+01  1.681495969E+02  2.676334349E+02  1.250000000E+02  0.00000E+00  9.000E+00
      25     1     1     2     0     0 -1.335267723E+02 -3.218000225E+00  6.940651933E+02  7.177682404E+02  1.250000000E+02  0.00000E+00  9.000E+00
      21     1     1     2   511   502 -2.887091485E+01  4.003321147E+01  1.111715534E+03  1.112810683E+03  1.525878906E-05  0.00000E+00  9.000E+00
#rwgt            1           1   1.7384408103151911E-002           8       23740           0
</event>
<event>
      5   9999  3.79277E-02  6.30126E+01 -1.00000E+00  1.33576E-01
      21    -1     0     0   502   501  0.000000000E+00  0.000000000E+00  3.500592978E+01  3.500592978E+01  0.000000000E+00  0.00000E+00  9.000E+00
      21    -1     0     0   501   512  0.000000000E+00  0.000000000E+00 -1.345421169E+03  1.345421169E+03  0.000000000E+00  0.00000E+00  9.000E+00
      25     1     1     2     0     0 -6.166767234E+01  1.504264442E+02 -5.370728186E+02  5.748941028E+02  1.250000000E+02  0.00000E+00  9.000E+00
      25     1     1     2     0     0  5.374471096E+01 -8.791392643E+01 -5.786148117E+02  6.008639220E+02  1.250000000E+02  0.00000E+00  9.000E+00
      21     1     1     2   502   512  7.922961385E+00 -6.251251775E+01 -1.947276091E+02  2.046690742E+02  2.697398305E-06  0.00000E+00  9.000E+00
#rwgt            1           1   4.6745368249211453E-002           8       23880           0
</event>
<event>
      5   9999  3.79277E-02  5.30727E+01 -1.00000E+00  1.37614E-01
       2    -1     0     0   502     0  0.000000000E+00  0.000000000E+00  1.185819608E+03  1.185819608E+03  0.000000000E+00  0.00000E+00  9.000E+00
      21    -1     0     0   501   502  0.000000000E+00  0.000000000E+00 -1.998535757E+02  1.998535757E+02  0.000000000E+00  0.00000E+00  9.000E+00
      25     1     1     2     0     0  5.000617959E+01  1.046379674E+02 -1.040507045E+02  1.997530258E+02  1.250000000E+02  0.00000E+00  9.000E+00
      25     1     1     2     0     0 -1.127865331E+00 -1.253169859E+02  1.186226871E+02  2.130773590E+02  1.250000000E+02  0.00000E+00  9.000E+00
       2     1     1     2   501     0 -4.887831426E+01  2.067901848E+01  9.713940500E+02  9.728427991E+02  0.000000000E+00  0.00000E+00  9.000E+00
#rwgt            1           1   5.1473880248899428E-002           8       24048           0
</event>
<event>
      5   9999 -3.79277E-02  2.77380E+01 -1.00000E+00  1.55443E-01
      21    -1     0     0   502   511  0.000000000E+00  0.000000000E+00  3.026777430E+02  3.026777430E+02  0.000000000E+00  0.00000E+00  9.000E+00
      21    -1     0     0   501   502  0.000000000E+00  0.000000000E+00 -7.700308515E+02  7.700308515E+02  0.000000000E+00  0.00000E+00  9.000E+00
      25     1     1     2     0     0 -1.019861631E+02 -7.523589824E+01 -4.245502179E+02  4.603580186E+02  1.250000000E+02  0.00000E+00  9.000E+00
      25     1     1     2     0     0  1.292614273E+02  8.028116966E+01 -2.971594381E+02  3.564860648E+02  1.250000000E+02  0.00000E+00  9.000E+00
      21     1     1     2   501   511 -2.727526421E+01 -5.045271417E+00  2.543565474E+02  2.558645111E+02  2.697398305E-06  0.00000E+00  9.000E+00
#rwgt            1           1 -0.25041870476130312                8       24143           0
</event>
<event>
      5   9999  3.79277E-02  1.19332E+01 -1.00000E+00  1.87283E-01
      21    -1     0     0   502   512  0.000000000E+00  0.000000000E+00  5.882120965E+01  5.882120965E+01  0.000000000E+00  0.00000E+00  9.000E+00
      21    -1     0     0   501   502  0.000000000E+00  0.000000000E+00 -1.061564769E+03  1.061564769E+03  0.000000000E+00  0.00000E+00  9.000E+00
      25     1     1     2     0     0 -1.249967505E+02  1.604713632E+02 -5.502736218E+02  5.998343979E+02  1.250000000E+02  0.00000E+00  9.000E+00
      25     1     1     2     0     0  1.368653924E+02 -1.592316963E+02 -4.399390682E+02  5.032477049E+02  1.250000000E+02  0.00000E+00  9.000E+00
      21     1     1     2   501   512 -1.186864189E+01 -1.239666858E+00 -1.253086933E+01  1.730387588E+01  2.920019320E-07  0.00000E+00  9.000E+00
#rwgt            1           1   2.6831118964866330E-002           8       24311           0
</event>
<event>
      5   9999  3.79277E-02  5.95679E+01 -1.00000E+00  1.34871E-01
      21    -1     0     0   502   501  0.000000000E+00  0.000000000E+00  7.919708403E+01  7.919708403E+01  0.000000000E+00  0.00000E+00  9.000E+00
      -1    -1     0     0     0   502  0.000000000E+00  0.000000000E+00 -1.604456334E+03  1.604456334E+03  0.000000000E+00  0.00000E+00  9.000E+00
      25     1     1     2     0     0  7.083013720E+01  8.516079057E+01 -5.003289726E+01  1.743489587E+02  1.250000000E+02  0.00000E+00  9.000E+00
      25     1     1     2     0     0 -1.274030136E+02 -6.651031205E+01 -5.478513194E+02  5.800182908E+02  1.250000000E+02  0.00000E+00  9.000E+00
      -1     1     1     2     0   501  5.657287635E+01 -1.865047851E+01 -9.273750337E+02  9.292861690E+02  1.078959322E-05  0.00000E+00  9.000E+00
#rwgt            1           1   3.3657902140347307E-002           8       24669           0
</event>
<event>
      5   9999  3.79277E-02  3.03694E+01 -1.00000E+00  1.52672E-01
      21    -1     0     0   511   501  0.000000000E+00  0.000000000E+00  1.276531609E+02  1.276531609E+02  0.000000000E+00  0.00000E+00  9.000E+00
      21    -1     0     0   501   502  0.000000000E+00  0.000000000E+00 -6.489190553E+02  6.489190553E+02  0.000000000E+00  0.00000E+00  9.000E+00
      25     1     1     2     0     0 -1.537060842E+02  1.671942586E+02 -1.133909225E+02  2.829522606E+02  1.250000000E+02  0.00000E+00  9.000E+00
      25     1     1     2     0     0  1.290436282E+02 -1.494723664E+02 -3.982531848E+02  4.617627589E+02  1.250000000E+02  0.00000E+00  9.000E+00
      21     1     1     2   511   502  2.466245598E+01 -1.772189223E+01 -9.621787063E+00  3.185719676E+01  5.591411304E-07  0.00000E+00  9.000E+00
#rwgt            1           1   3.8263387743543993E-002           8       24782           0
</event>
<event>
      5   9999  3.79277E-02  1.93326E+01 -1.00000E+00  1.67595E-01
      21    -1     0     0   502   512  0.000000000E+00  0.000000000E+00  1.668931811E+03  1.668931811E+03  0.000000000E+00  0.00000E+00  9.000E+00
      21    -1     0     0   501   502  0.000000000E+00  0.000000000E+00 -6.444363468E+02  6.444363468E+02  0.000000000E+00  0.00000E+00  9.000E+00
      25     1     1     2     0     0 -1.420553436E+01  1.884391449E+02 -2.983829889E+02  3.746578661E+02  1.250000000E+02  0.00000E+00  9.000E+00
      25     1     1     2     0     0 -4.744901982E+00 -1.922640590E+02 -2.651319141E+02  3.505822505E+02  1.250000000E+02  0.00000E+00  9.000E+00
      21     1     1     2   501   512  1.895043634E+01  3.824914018E+00  1.588010367E+03  1.588128041E+03  3.051757812E-05  0.00000E+00  9.000E+00
#rwgt            1           1   4.1057974171099715E-002           8       24986           0
</event>
<event>
      5   9999  3.79277E-02  7.04433E+01 -1.00000E+00  1.31082E-01
      21    -1     0     0   511   501  0.000000000E+00  0.000000000E+00  1.760071278E+02  1.760071278E+02  0.000000000E+00  0.00000E+00  9.000E+00
      21    -1     0     0   501   502  0.000000000E+00  0.000000000E+00 -2.483502888E+02  2.483502888E+02  0.000000000E+00  0.00000E+00  9.000E+00
      25     1     1     2     0     0  3.275894918E+01 -1.211673526E+02 -1.032549373E+02  2.050396502E+02  1.250000000E+02  0.00000E+00  9.000E+00
      25     1     1     2     0     0  1.792409772E+01  7.224413013E+01  3.157834550E+01  1.488713523E+02  1.250000000E+02  0.00000E+00  9.000E+00
      21     1     1     2   511   502 -5.068304690E+01  4.892322246E+01 -6.665692105E-01  7.044641406E+01  1.585573880E-06  0.00000E+00  9.000E+00
#rwgt            1           1   4.0395739147871132E-002           8       25255           0
</event>
<event>
      5   9999  3.79277E-02  2.97229E+02 -1.00000E+00  1.05723E-01
       1    -1     0     0   502     0  0.000000000E+00  0.000000000E+00  1.346769900E+03  1.346769900E+03  0.000000000E+00  0.00000E+00  9.000E+00
      21    -1     0     0   501   502  0.000000000E+00  0.000000000E+00 -2.735055800E+03  2.735055800E+03  0.000000000E+00  0.00000E+00  9.000E+00
      25     1     1     2     0     0 -2.285936634E+01  2.188856569E+01 -1.585425147E+02  2.043584813E+02  1.250000000E+02  0.00000E+00  9.000E+00
      25     1     1     2     0     0  1.097844941E+02  2.623453378E+02 -2.527291136E+03  2.546311685E+03  1.250000000E+02  0.00000E+00  9.000E+00
       1     1     1     2   501     0 -8.692512780E+01 -2.842339035E+02  1.297547750E+03  1.331155533E+03  2.157918644E-05  0.00000E+00  9.000E+00
#rwgt            1           1   8.2051352124412183E-002           8       25336           0
</event>
<event>
      5   9999  3.79277E-02  3.92885E+01 -1.00000E+00  1.45325E-01
      21    -1     0     0   502   501  0.000000000E+00  0.000000000E+00  4.617506325E+02  4.617506325E+02  0.000000000E+00  0.00000E+00  9.000E+00
      21    -1     0     0   501   511  0.000000000E+00  0.000000000E+00 -1.988207411E+02  1.988207411E+02  0.000000000E+00  0.00000E+00  9.000E+00
      25     1     1     2     0     0 -1.210252195E+02 -8.675300921E+01  7.806079746E+01  2.095034044E+02  1.250000000E+02  0.00000E+00  9.000E+00
      25     1     1     2     0     0  1.005907953E+02  5.319674473E+01  2.917572468E+02  3.371879191E+02  1.250000000E+02  0.00000E+00  9.000E+00
      21     1     1     2   502   511  2.043442418E+01  3.355626449E+01 -1.068881528E+02  1.138800500E+02  1.348699152E-06  0.00000E+00  9.000E+00
#rwgt            1           1   2.8419305323311821E-002           8       25506           0
</event>
<event>
      5   9999  3.79277E-02  1.10107E+02 -1.00000E+00  1.21976E-01
      21    -1     0     0   512   501  0.000000000E+00  0.000000000E+00  9.115759699E+01  9.115759699E+01  0.000000000E+00  0.00000E+00  9.000E+00
      21    -1     0     0   501   502  0.000000000E+00  0.000000000E+00 -1.456851767E+03  1.456851767E+03  0.000000000E+00  0.00000E+00  9.000E+00
      25     1     1     2     0     0  1.577786596E+01 -2.271880313E+02 -5.096291644E+02  5.720229260E+02  1.250000000E+02  0.00000E+00  9.000E+00
      25     1     1     2     0     0  2.546211692E+00  3.357599588E+02 -6.701339845E+02  7.598985395E+02  1.250000000E+02  0.00000E+00  9.000E+00
      21     1     1     2   512   502 -1.832407765E+01 -1.085719275E+02 -1.859310209E+02  2.160878983E+02  4.672030912E-06  0.00000E+00  9.000E+00
#rwgt            1           1   3.8109404723794607E-002           8       25736           0
</event>
<event>
      5   9999  3.79277E-02  2.11516E+01 -1.00000E+00  1.64388E-01
      21    -1     0     0   502   501  0.000000000E+00  0.000000000E+00  2.044119764E+02  2.044119764E+02  0.000000000E+00  0.00000E+00  9.000E+00
      21    -1     0     0   501   511  0.000000000E+00  0.000000000E+00 -4.763885239E+02  4.763885239E+02  0.000000000E+00  0.00000E+00  9.000E+00
      25     1     1     2     0     0 -4.515034589E+01  1.654632715E+02 -3.227288242E+02  3.862583875E+02  1.250000000E+02  0.00000E+00  9.000E+00
      25     1     1     2     0     0  5.928206216E+01 -1.812012431E+02  9.384653196E+01  2.465368633E+02  1.250000000E+02  0.00000E+00  9.000E+00
      21     1     1     2   502   511 -1.413171626E+01  1.573797158E+01 -4.309425524E+01  4.800524960E+01  4.768371582E-07  0.00000E+00  9.000E+00
#rwgt            1           1   4.2301130450699512E-002           8       25924           0
</event>
<event>
      5   9999  3.79277E-02  6.09937E+01 -1.00000E+00  1.34323E-01
      21    -1     0     0   512   501  0.000000000E+00  0.000000000E+00  2.982394601E+02  2.982394601E+02  0.000000000E+00  0.00000E+00  9.000E+00
      21    -1     0     0   501   502  0.000000000E+00  0.000000000E+00 -2.528759073E+02  2.528759073E+02  0.000000000E+00  0.00000E+00  9.000E+00
      25     1     1     2     0     0 -4.786287462E+00 -1.571922818E+02 -1.398544332E+02  2.447786439E+02  1.250000000E+02  0.00000E+00  9.000E+00
      25     1     1     2     0     0  4.689335498E+01  1.130648415E+02  9.991592540E+01  2.014716786E+02  1.250000000E+02  0.00000E+00  9.000E+00
      21     1     1     2   512   502 -4.210706752E+01  4.412744032E+01  8.530206053E+01  1.048650450E+02  0.000000000E+00  0.00000E+00  9.000E+00
#rwgt            1           1   3.2259857286696579E-002           8       26205           0
</event>
<event>
      5   9999  3.79277E-02  3.69754E+01 -1.00000E+00  1.46990E-01
      21    -1     0     0   502   501  0.000000000E+00  0.000000000E+00  9.756451387E+01  9.756451387E+01  0.000000000E+00  0.00000E+00  9.000E+00
      21    -1     0     0   511   502  0.000000000E+00  0.000000000E+00 -1.038670478E+03  1.038670478E+03  0.000000000E+00  0.00000E+00  9.000E+00
      25     1     1     2     0     0  8.990272893E+01 -2.190880662E+00 -1.962734817E+02  2.494705999E+02  1.250000000E+02  0.00000E+00  9.000E+00
      25     1     1     2     0     0 -1.207546887E+02 -1.818891476E+01 -3.783264102E+01  1.787983226E+02  1.250000000E+02  0.00000E+00  9.000E+00
      21     1     1     2   511   501  3.085195973E+01  2.037979542E+01 -7.069998415E+02  7.079660694E+02  1.078959322E-05  0.00000E+00  9.000E+00
#rwgt            1           1   3.6572716079397612E-002           8       26423           0
</event>
<event>
      5   9999  3.79277E-02  3.68440E+01 -1.00000E+00  1.47089E-01
      21    -1     0     0   502   501  0.000000000E+00  0.000000000E+00  3.314012285E+02  3.314012285E+02  0.000000000E+00  0.00000E+00  9.000E+00
      21    -1     0     0   501   512  0.000000000E+00  0.000000000E+00 -2.649482462E+02  2.649482462E+02  0.000000000E+00  0.00000E+00  9.000E+00
      25     1     1     2     0     0 -1.316594379E+02  1.509689872E+01  2.398519978E+02  3.011911433E+02  1.250000000E+02  0.00000E+00  9.000E+00
      25     1     1     2     0     0  1.375590296E+02  2.127166956E+01 -9.790277237E+01  2.111514229E+02  1.250000000E+02  0.00000E+00  9.000E+00
      21     1     1     2   502   512 -5.899591685E+00 -3.636856827E+01 -7.549624324E+01  8.400690854E+01  1.651812370E-06  0.00000E+00  9.000E+00
#rwgt            1           1  0.14672955236539226                8       26555           0
</event>
<event>
      5   9999  3.79277E-02  3.93742E+01 -1.00000E+00  1.45266E-01
      21    -1     0     0   502   501  0.000000000E+00  0.000000000E+00  2.893833901E+02  2.893833901E+02  0.000000000E+00  0.00000E+00  9.000E+00
      21    -1     0     0   511   502  0.000000000E+00  0.000000000E+00 -2.649584211E+02  2.649584211E+02  0.000000000E+00  0.00000E+00  9.000E+00
      25     1     1     2     0     0 -2.052194508E+02  4.681665995E+01 -4.372478026E+01  2.486838938E+02  1.250000000E+02  0.00000E+00  9.000E+00
      25     1     1     2     0     0  2.204973825E+02 -1.052740996E+01  7.736952897E+01  2.652187137E+02  1.250000000E+02  0.00000E+00  9.000E+00
      21     1     1     2   511   501 -1.527793177E+01 -3.628924999E+01 -9.219779731E+00  4.043920378E+01  8.172577143E-07  0.00000E+00  9.000E+00
#rwgt            1           1   2.3500248761547292E-002           8       26644           0
</event>
<event>
      5   9999  3.79277E-02  5.46251E+01 -1.00000E+00  1.36918E-01
       2    -1     0     0   502     0  0.000000000E+00  0.000000000E+00  6.876056489E+02  6.876056489E+02  0.000000000E+00  0.00000E+00  9.000E+00
      21    -1     0     0   501   502  0.000000000E+00  0.000000000E+00 -2.083285778E+02  2.083285778E+02  0.000000000E+00  0.00000E+00  9.000E+00
      25     1     1     2     0     0 -2.178343967E+01  4.021847968E+01 -1.402472077E+02  1.933554334E+02  1.250000000E+02  0.00000E+00  9.000E+00
      25     1     1     2     0     0 -1.494357612E+01 -8.065399128E+01  9.927222928E+01  1.794668557E+02  1.250000000E+02  0.00000E+00  9.000E+00
       2     1     1     2   501     0  3.672701579E+01  4.043551159E+01  5.202520496E+02  5.231119377E+02  7.629394531E-06  0.00000E+00  9.000E+00
#rwgt            1           1   1.8133348291037014E-002           8       26844           0
</event>
<event>
      5   9999  3.79277E-02  2.18569E+01 -1.00000E+00  1.63249E-01
       2    -1     0     0   502     0  0.000000000E+00  0.000000000E+00  2.727776762E+02  2.727776762E+02  0.000000000E+00  0.00000E+00  9.000E+00
      21    -1     0     0   501   502  0.000000000E+00  0.000000000E+00 -9.010708458E+02  9.010708458E+02  0.000000000E+00  0.00000E+00  9.000E+00
      25     1     1     2     0     0  1.160740102E+02 -3.063644981E+01 -9.836904933E+01  1.992818049E+02  1.250000000E+02  0.00000E+00  9.000E+00
      25     1     1     2     0     0 -9.441482053E+01  3.356997959E+01 -7.431505973E+02  7.602229358E+02  1.250000000E+02  0.00000E+00  9.000E+00
       2     1     1     2   501     0 -2.165918970E+01 -2.933529781E+00  2.132264770E+02  2.143437813E+02  4.672030912E-06  0.00000E+00  9.000E+00
#rwgt            1           1   3.7802258214895960E-002           8       27040           0
</event>
<event>
      5   9999  3.79277E-02  1.17637E+02 -1.00000E+00  1.20736E-01
      21    -1     0     0   502   511  0.000000000E+00  0.000000000E+00  1.588623986E+02  1.588623986E+02  0.000000000E+00  0.00000E+00  9.000E+00
      21    -1     0     0   501   502  0.000000000E+00  0.000000000E+00 -6.445124310E+02  6.445124310E+02  0.000000000E+00  0.00000E+00  9.000E+00
      25     1     1     2     0     0  7.661337963E+00 -1.379868965E+01 -4.744388354E+02  4.908831922E+02  1.250000000E+02  0.00000E+00  9.000E+00
      25     1     1     2     0     0 -1.087074389E+02  7.403313847E+01 -5.070980997E+01  1.884003654E+02  1.250000000E+02  0.00000E+00  9.000E+00
      21     1     1     2   501   511  1.010461009E+02 -6.023444882E+01  3.949861289E+01  1.240912719E+02  9.536743164E-07  0.00000E+00  9.000E+00
#rwgt            2          11   2.0240416324323533E-003           8       27264           0
</event>
<event>
      5   9999  3.79277E-02  2.38255E+01 -1.00000E+00  1.60332E-01
      21    -1     0     0   512   501  0.000000000E+00  0.000000000E+00  5.024051694E+02  5.024051694E+02  0.000000000E+00  0.00000E+00  9.000E+00
      21    -1     0     0   501   502  0.000000000E+00  0.000000000E+00 -9.519802329E+01  9.519802329E+01  0.000000000E+00  0.00000E+00  9.000E+00
      25     1     1     2     0     0  1.322302704E+02 -3.631935137E+01  2.558896434E+02  3.160829785E+02  1.250000000E+02  0.00000E+00  9.000E+00
      25     1     1     2     0     0 -1.151483231E+02  5.292840802E+01  6.108291735E+01  1.881931866E+02  1.250000000E+02  0.00000E+00  9.000E+00
      21     1     1     2   512   502 -1.708194738E+01 -1.660905665E+01  9.023458537E+01  9.332702762E+01  1.348699152E-06  0.00000E+00  9.000E+00
#rwgt            1           1   6.5363681558500350E-002           8       27344           0
</event>
<event>
      5   9999  3.79277E-02  2.27988E+01 -1.00000E+00  1.61809E-01
      21    -1     0     0   511   501  0.000000000E+00  0.000000000E+00  1.260906649E+02  1.260906649E+02  0.000000000E+00  0.00000E+00  9.000E+00
      21    -1     0     0   501   502  0.000000000E+00  0.000000000E+00 -8.147814456E+02  8.147814456E+02  0.000000000E+00  0.00000E+00  9.000E+00
      25     1     1     2     0     0  2.402743291E+02  9.939461879E+01 -2.237880153E+02  3.651261690E+02  1.250000000E+02  0.00000E+00  9.000E+00
      25     1     1     2     0     0 -2.525312452E+02 -1.186183555E+02 -4.601549171E+02  5.524580453E+02  1.250000000E+02  0.00000E+00  9.000E+00
      21     1     1     2   511   502  1.225691605E+01  1.922373676E+01 -4.747848241E+00  2.328789619E+01  2.598106231E-07  0.00000E+00  9.000E+00
#rwgt            1           1   4.5072546902341228E-002           8       27471           0
</event>
<event>
      5   9999  3.79277E-02  3.23986E+01 -1.00000E+00  1.50755E-01
      21    -1     0     0   502   501  0.000000000E+00  0.000000000E+00  1.645542676E+02  1.645542676E+02  0.000000000E+00  0.00000E+00  9.000E+00
       2    -1     0     0   501     0  0.000000000E+00  0.000000000E+00 -3.146890478E+02  3.146890478E+02  0.000000000E+00  0.00000E+00  9.000E+00
      25     1     1     2     0     0 -9.914231422E+01  2.781232912E+01  6.296544182E+01  1.737595206E+02  1.250000000E+02  0.00000E+00  9.000E+00
      25     1     1     2     0     0  7.014899586E+01 -4.227115954E+01 -8.204241745E+01  1.704807638E+02  1.250000000E+02  0.00000E+00  9.000E+00
       2     1     1     2   502     0  2.899331835E+01  1.445883042E+01 -1.310578046E+02  1.350030312E+02  1.907348633E-06  0.00000E+00  9.000E+00
#rwgt            1           1   4.0928435170485354E-002           8       27646           0
</event>
<event>
      5   9999  3.79277E-02  2.26662E+01 -1.00000E+00  1.62006E-01
       2    -1     0     0   502     0  0.000000000E+00  0.000000000E+00  2.067472128E+02  2.067472128E+02  0.000000000E+00  0.00000E+00  9.000E+00
      21    -1     0     0   501   502  0.000000000E+00  0.000000000E+00 -4.355983922E+02  4.355983922E+02  0.000000000E+00  0.00000E+00  9.000E+00
      25     1     1     2     0     0 -5.458598554E+01 -2.542990357E+01 -3.420488912E+02  3.691188884E+02  1.250000000E+02  0.00000E+00  9.000E+00
      25     1     1     2     0     0  5.331283226E+01  2.799531334E+00 -2.064172836E+01  1.374815493E+02  1.250000000E+02  0.00000E+00  9.000E+00
       2     1     1     2   501     0  1.273153277E+00  2.263037224E+01  1.338394402E+02  1.357451672E+02  0.000000000E+00  0.00000E+00  9.000E+00
#rwgt            1           1   4.5147543563697226E-002           8       27814           0
</event>
<event>
      5   9999  3.79277E-02  8.37345E+01 -1.00000E+00  1.27398E-01
      21    -1     0     0   502   511  0.000000000E+00  0.000000000E+00  2.541022357E+02  2.541022357E+02  0.000000000E+00  0.00000E+00  9.000E+00
      21    -1     0     0   501   502  0.000000000E+00  0.000000000E+00 -4.413549420E+02  4.413549420E+02  0.000000000E+00  0.00000E+00  9.000E+00
      25     1     1     2     0     0  5.125495129E+01  5.873126111E+01  6.065786122E+01  1.593135499E+02  1.250000000E+02  0.00000E+00  9.000E+00
      25     1     1     2     0     0  5.537319283E+00  2.800040733E+00 -3.685905506E+02  3.892589063E+02  1.250000000E+02  0.00000E+00  9.000E+00
      21     1     1     2   501   511 -5.679227057E+01 -6.153130184E+01  1.206799831E+02  1.468847215E+02  1.907348633E-06  0.00000E+00  9.000E+00
#rwgt            1           1   4.0523311662367979E-002           8       27924           0
</event>
<event>
      5   9999 -3.79277E-02  8.06431E+01 -1.00000E+00  1.28181E-01
      21    -1     0     0   512   501  0.000000000E+00  0.000000000E+00  1.337193954E+03  1.337193954E+03  0.000000000E+00  0.00000E+00  9.000E+00
      21    -1     0     0   501   502  0.000000000E+00  0.000000000E+00 -5.648626892E+01  5.648626892E+01  0.000000000E+00  0.00000E+00  9.000E+00
      25     1     1     2     0     0 -9.330324654E+01  8.257059746E+01  1.741529563E+02  2.479468725E+02  1.250000000E+02  0.00000E+00  9.000E+00
      25     1     1     2     0     0  1.657691514E+02 -4.718692215E+01  8.752465456E+02  9.007705217E+02  1.250000000E+02  0.00000E+00  9.000E+00
      21     1     1     2   512   502 -7.246590489E+01 -3.538367531E+01  2.313081828E+02  2.449628284E+02  2.697398305E-06  0.00000E+00  9.000E+00
#rwgt            1           1  -5.4887576098415797E-002           8       28010           0
</event>
<event>
      5   9999  3.79277E-02  1.46450E+02 -1.00000E+00  1.16807E-01
      21    -1     0     0   511   501  0.000000000E+00  0.000000000E+00  3.897457199E+02  3.897457199E+02  0.000000000E+00  0.00000E+00  9.000E+00
      21    -1     0     0   501   502  0.000000000E+00  0.000000000E+00 -2.209304843E+02  2.209304843E+02  0.000000000E+00  0.00000E+00  9.000E+00
      25     1     1     2     0     0 -3.163824329E+00 -3.304697306E+01 -8.165825142E+01  1.529548373E+02  1.250000000E+02  0.00000E+00  9.000E+00
      25     1     1     2     0     0 -2.257460252E+01  1.772170224E+02  7.826000472E+01  2.316573203E+02  1.250000000E+02  0.00000E+00  9.000E+00
      21     1     1     2   511   502  2.573842685E+01 -1.441700493E+02  1.722134823E+02  2.260640467E+02  2.697398305E-06  0.00000E+00  9.000E+00
#rwgt            2          11   1.8965016608921057E-003           8       28105           0
</event>
<event>
      5   9999  3.79277E-02  7.99010E+01 -1.00000E+00  1.28376E-01
      21    -1     0     0   512   501  0.000000000E+00  0.000000000E+00  2.607871955E+02  2.607871955E+02  0.000000000E+00  0.00000E+00  9.000E+00
      21    -1     0     0   501   502  0.000000000E+00  0.000000000E+00 -9.754875359E+02  9.754875359E+02  0.000000000E+00  0.00000E+00  9.000E+00
      25     1     1     2     0     0 -1.648048572E+01  2.129028726E+02 -5.946403674E+02  6.440663057E+02  1.250000000E+02  0.00000E+00  9.000E+00
      25     1     1     2     0     0  9.636631221E+01 -2.113457679E+02 -2.975058827E+02  3.976031312E+02  1.250000000E+02  0.00000E+00  9.000E+00
      21     1     1     2   512   502 -7.988582648E+01 -1.557104737E+00  1.774459096E+02  1.946052946E+02  3.814697266E-06  0.00000E+00  9.000E+00
#rwgt            1           1   4.4134391474184465E-002           8       28170           0
</event>
<event>
      5   9999  3.79277E-02  2.38764E+02 -1.00000E+00  1.08917E-01
      21    -1     0     0   502   501  0.000000000E+00  0.000000000E+00  1.751243649E+03  1.751243649E+03  0.000000000E+00  0.00000E+00  9.000E+00
      21    -1     0     0   501   511  0.000000000E+00  0.000000000E+00 -2.476491003E+03  2.476491003E+03  0.000000000E+00  0.00000E+00  9.000E+00
      25     1     1     2     0     0 -3.099038820E+01  3.476538748E+02  5.057064619E+02  6.270467658E+02  1.250000000E+02  0.00000E+00  9.000E+00
      25     1     1     2     0     0  1.083026997E+02 -1.217533995E+02  1.170001560E+03  1.187889732E+03  1.250000000E+02  0.00000E+00  9.000E+00
      21     1     1     2   502   511 -7.731231151E+01 -2.259004753E+02 -2.400955376E+03  2.412798155E+03  3.051757812E-05  0.00000E+00  9.000E+00
#rwgt            2          11   3.1640674010939507E-002           8       28248           0
</event>
<event>
      5   9999  3.79277E-02  3.19856E+01 -1.00000E+00  1.51131E-01
      21    -1     0     0   502   512  0.000000000E+00  0.000000000E+00  1.352903420E+03  1.352903420E+03  0.000000000E+00  0.00000E+00  9.000E+00
      21    -1     0     0   501   502  0.000000000E+00  0.000000000E+00 -3.768083895E+01  3.768083895E+01  0.000000000E+00  0.00000E+00  9.000E+00
      25     1     1     2     0     0  1.025547063E+01  1.509968468E+02  5.107144065E+02  5.471374850E+02  1.250000000E+02  0.00000E+00  9.000E+00
      25     1     1     2     0     0 -1.117254530E+00 -1.816492710E+02  6.779248375E+02  7.128848373E+02  1.250000000E+02  0.00000E+00  9.000E+00
      21     1     1     2   501   512 -9.138216103E+00  3.065242421E+01  1.265833372E+02  1.305619368E+02  2.697398305E-06  0.00000E+00  9.000E+00
#rwgt            1           1   5.2367950177568345E-002           8       28343           0
</event>
<event>
      5   9999  3.79277E-02  9.08542E+01 -1.00000E+00  1.25731E-01
       4    -1     0     0   502     0  0.000000000E+00  0.000000000E+00  4.956872962E+02  4.956872962E+02  0.000000000E+00  0.00000E+00  9.000E+00
      21    -1     0     0   501   502  0.000000000E+00  0.000000000E+00 -1.467633289E+03  1.467633289E+03  0.000000000E+00  0.00000E+00  9.000E+00
      25     1     1     2     0     0  6.518409834E+01  9.993639232E+01 -1.076713861E+03  1.090492544E+03  1.250000000E+02  0.00000E+00  9.000E+00
      25     1     1     2     0     0 -1.399276718E+02 -1.515879101E+02 -3.411146815E+02  4.177832856E+02  1.250000000E+02  0.00000E+00  9.000E+00
       4     1     1     2   501     0  7.474357345E+01  5.165151780E+01  4.458825501E+02  4.550447556E+02  7.629394531E-06  0.00000E+00  9.000E+00
#rwgt            1           1   3.7152272190356952E-002           8       28495           0
</event>
<event>
      5   9999  3.79277E-02  6.66626E+01 -1.00000E+00  1.32304E-01
      21    -1     0     0   502   501  0.000000000E+00  0.000000000E+00  2.850390728E+02  2.850390728E+02  0.000000000E+00  0.00000E+00  9.000E+00
      21    -1     0     0   511   502  0.000000000E+00  0.000000000E+00 -5.499393479E+02  5.499393479E+02  0.000000000E+00  0.00000E+00  9.000E+00
      25     1     1     2     0     0 -1.563667777E+02  2.366944710E+02  6.785966316E+01  3.173401577E+02  1.250000000E+02  0.00000E+00  9.000E+00
      25     1     1     2     0     0  1.088635843E+02 -2.834636398E+02 -2.590275437E+02  4.182381899E+02  1.250000000E+02  0.00000E+00  9.000E+00
      21     1     1     2   511   501  4.750319343E+01  4.676916874E+01 -7.373239452E+01  9.940007310E+01  0.000000000E+00  0.00000E+00  9.000E+00
#rwgt            1           1   3.8731525684484583E-002           8       28619           0
</event>
<event>
      5   9999  3.79277E-02  1.28603E+01 -1.00000E+00  1.83921E-01
      -4    -1     0     0     0   501  0.000000000E+00  0.000000000E+00  5.405010585E+02  5.405010585E+02  0.000000000E+00  0.00000E+00  9.000E+00
      21    -1     0     0   501   502  0.000000000E+00  0.000000000E+00 -1.868782723E+02  1.868782723E+02  0.000000000E+00  0.00000E+00  9.000E+00
      25     1     1     2     0     0  1.501624872E+02  1.044671072E+02  3.237162926E+02  3.922746323E+02  1.250000000E+02  0.00000E+00  9.000E+00
      25     1     1     2     0     0 -1.609944737E+02 -1.113992581E+02 -6.351090620E+01  2.408062509E+02  1.250000000E+02  0.00000E+00  9.000E+00
      -4     1     1     2     0   502  1.083198648E+01  6.932150853E+00  9.341739969E+01  9.429844755E+01  0.000000000E+00  0.00000E+00  9.000E+00
#rwgt            1           1   3.9297843650142834E-002           8       28725           0
</event>
<event>
      5   9999  3.79277E-02  5.27382E+01 -1.00000E+00  1.37767E-01
      21    -1     0     0   511   501  0.000000000E+00  0.000000000E+00  2.404368869E+02  2.404368869E+02  0.000000000E+00  0.00000E+00  9.000E+00
      21    -1     0     0   501   502  0.000000000E+00  0.000000000E+00 -3.014817226E+02  3.014817226E+02  0.000000000E+00  0.00000E+00  9.000E+00
      25     1     1     2     0     0  1.941424781E+02  9.528596616E+01 -8.699388651E+01  2.645064336E+02  1.250000000E+02  0.00000E+00  9.000E+00
      25     1     1     2     0     0 -1.416701664E+02 -1.005755021E+02 -8.866766658E+00  2.142183167E+02  1.250000000E+02  0.00000E+00  9.000E+00
      21     1     1     2   511   502 -5.247231166E+01  5.289535925E+00  3.481581749E+01  6.319385911E+01  4.768371582E-07  0.00000E+00  9.000E+00
#rwgt            1           1  0.36321618586633464                8       29117           0
</event>
<event>
      5   9999  3.79277E-02  8.24598E+01 -1.00000E+00  1.27716E-01
      21    -1     0     0   502   512  0.000000000E+00  0.000000000E+00  1.401996781E+02  1.401996781E+02  0.000000000E+00  0.00000E+00  9.000E+00
      21    -1     0     0   501   502  0.000000000E+00  0.000000000E+00 -9.361140126E+02  9.361140126E+02  0.000000000E+00  0.00000E+00  9.000E+00
      25     1     1     2     0     0 -2.945893945E+01  2.948491972E+02 -3.333776361E+02  4.632165007E+02  1.250000000E+02  0.00000E+00  9.000E+00
      25     1     1     2     0     0  1.089128822E+02 -2.727883156E+02 -3.821958500E+02  4.979700280E+02  1.250000000E+02  0.00000E+00  9.000E+00
      21     1     1     2   501   512 -7.945394277E+01 -2.206088163E+01 -8.034084837E+01  1.151271620E+02  9.536743164E-07  0.00000E+00  9.000E+00
#rwgt            1           1   3.0081582000864280E-002           8       29204           0
</event>
<event>
      5   9999  3.79277E-02  2.05123E+02 -1.00000E+00  1.11250E-01
      21    -1     0     0   502   501  0.000000000E+00  0.000000000E+00  2.095689628E+02  2.095689628E+02  0.000000000E+00  0.00000E+00  9.000E+00
       1    -1     0     0   501     0  0.000000000E+00  0.000000000E+00 -2.683062936E+03  2.683062936E+03  0.000000000E+00  0.00000E+00  9.000E+00
      25     1     1     2     0     0 -2.135622990E+02  1.700294736E+02 -4.811561582E+00  3.002782519E+02  1.250000000E+02  0.00000E+00  9.000E+00
      25     1     1     2     0     0  2.418683161E+02 -3.731902974E+02 -9.130694895E+02  1.023275219E+03  1.250000000E+02  0.00000E+00  9.000E+00
       1     1     1     2   502     0 -2.830601711E+01  2.031608237E+02 -1.555612922E+03  1.569078428E+03  0.000000000E+00  0.00000E+00  9.000E+00
#rwgt            2          12   2.0807477603226220E-004           8       29377           0
</event>
<event>
      5   9999  3.79277E-02  9.16083E+01 -1.00000E+00  1.25565E-01
      21    -1     0     0   502   501  0.000000000E+00  0.000000000E+00  2.221025388E+02  2.221025388E+02  0.000000000E+00  0.00000E+00  9.000E+00
      21    -1     0     0   511   502  0.000000000E+00  0.000000000E+00 -2.694183909E+02  2.694183909E+02  0.000000000E+00  0.00000E+00  9.000E+00
      25     1     1     2     0     0 -1.518720550E+02 -3.339151552E+01  1.578707847E+01  2.001358195E+02  1.250000000E+02  0.00000E+00  9.000E+00
      25     1     1     2     0     0  1.086022282E+02 -4.735383151E+01  1.240024906E+01  1.726719303E+02  1.250000000E+02  0.00000E+00  9.000E+00
      21     1     1     2   511   501  4.326982675E+01  8.074534703E+01 -7.550317957E+01  1.187131800E+02  1.348699152E-06  0.00000E+00  9.000E+00
#rwgt            1           1   2.8902780713467423E-002           8       29441           0
</event>
<event>
      5   9999  3.79277E-02  2.46947E+01 -1.00000E+00  1.59152E-01
      21    -1     0     0   502   512  0.000000000E+00  0.000000000E+00  1.099038157E+03  1.099038157E+03  0.000000000E+00  0.00000E+00  9.000E+00
      21    -1     0     0   501   502  0.000000000E+00  0.000000000E+00 -3.776707181E+01  3.776707181E+01  0.000000000E+00  0.00000E+00  9.000E+00
      25     1     1     2     0     0 -2.749268675E+01 -1.287692828E+02  4.902230502E+02  5.227628669E+02  1.250000000E+02  0.00000E+00  9.000E+00
      25     1     1     2     0     0  4.993745504E+01  1.390679397E+02  4.399660522E+02  4.806545208E+02  1.250000000E+02  0.00000E+00  9.000E+00
      21     1     1     2   501   512 -2.244476829E+01 -1.029865688E+01  1.310819832E+02  1.333878415E+02  1.907348633E-06  0.00000E+00  9.000E+00
#rwgt            1           1   3.1285700008342333E-002           8       29544           0
</event>
<event>
      5   9999 -3.79277E-02  3.82269E+01 -1.00000E+00  1.46072E-01
      21    -1     0     0   502   501  0.000000000E+00  0.000000000E+00  1.537893789E+03  1.537893789E+03  0.000000000E+00  0.00000E+00  9.000E+00
      -2    -1     0     0     0   502  0.000000000E+00  0.000000000E+00 -2.718285180E+02  2.718285180E+02  0.000000000E+00  0.00000E+00  9.000E+00
      25     1     1     2     0     0  2.550137575E+02 -3.149060560E+02 -2.020588977E+01  4.245363573E+02  1.250000000E+02  0.00000E+00  9.000E+00
      25     1     1     2     0     0 -2.791223601E+02  3.445720269E+02  1.251122206E+03  1.333255770E+03  1.250000000E+02  0.00000E+00  9.000E+00
      -2     1     1     2     0   501  2.410860260E+01 -2.966597084E+01  3.514895434E+01  5.193017944E+01  1.168007728E-06  0.00000E+00  9.000E+00
#rwgt            1           1 -0.21167340013703004                8       29675           0
</event>
<event>
      5   9999  3.79277E-02  7.17598E+01 -1.00000E+00  1.30677E-01
      21    -1     0     0   502   501  0.000000000E+00  0.000000000E+00  1.945718454E+03  1.945718454E+03  0.000000000E+00  0.00000E+00  9.000E+00
      21    -1     0     0   511   502  0.000000000E+00  0.000000000E+00 -5.662425006E+01  5.662425006E+01  0.000000000E+00  0.00000E+00  9.000E+00
      25     1     1     2     0     0 -1.975567158E+02 -2.262405362E+01  5.757682110E+02  6.218315983E+02  1.250000000E+02  0.00000E+00  9.000E+00
      25     1     1     2     0     0  2.693086005E+02  2.155887876E+01  1.249506280E+03  1.284477657E+03  1.250000000E+02  0.00000E+00  9.000E+00
      21     1     1     2   511   501 -7.175188468E+01  1.065174861E+00  6.381971317E+01  9.603344907E+01  9.536743164E-07  0.00000E+00  9.000E+00
#rwgt            1           1   2.8919721615203422E-002           8       30051           0
</event>
<event>
      5   9999  3.79277E-02  4.64820E+01 -1.00000E+00  1.40908E-01
      21    -1     0     0   502   501  0.000000000E+00  0.000000000E+00  2.006037842E+02  2.006037842E+02  0.000000000E+00  0.00000E+00  9.000E+00
      21    -1     0     0   512   502  0.000000000E+00  0.000000000E+00 -2.855402178E+02  2.855402178E+02  0.000000000E+00  0.00000E+00  9.000E+00
      25     1     1     2     0     0  2.160248222E+00 -1.836038686E+02 -9.346409772E+01  2.409887649E+02  1.250000000E+02  0.00000E+00  9.000E+00
      25     1     1     2     0     0 -3.079397543E+01  1.469884853E+02  2.233325566E+01  1.966663622E+02  1.250000000E+02  0.00000E+00  9.000E+00
      21     1     1     2   512   501  2.863372721E+01  3.661538328E+01 -1.380559154E+01  4.848887485E+01  1.130918620E-06  0.00000E+00  9.000E+00
#rwgt            1           1   3.4257779749131564E-002           8       30161           0
</event>
<event>
      5   9999  3.79277E-02  2.71157E+01 -1.00000E+00  1.56153E-01
      21    -1     0     0   511   501  0.000000000E+00  0.000000000E+00  2.038904455E+02  2.038904455E+02  0.000000000E+00  0.00000E+00  9.000E+00
      21    -1     0     0   501   502  0.000000000E+00  0.000000000E+00 -2.784770101E+02  2.784770101E+02  0.000000000E+00  0.00000E+00  9.000E+00
      25     1     1     2     0     0 -8.566559986E+01  1.403734589E+02  3.406607116E+01  2.093532903E+02  1.250000000E+02  0.00000E+00  9.000E+00
      25     1     1     2     0     0  6.960793899E+01 -1.622231959E+02 -1.152744352E+02  2.451016643E+02  1.250000000E+02  0.00000E+00  9.000E+00
      21     1     1     2   511   502  1.605766087E+01  2.184973691E+01  6.621799477E+00  2.791250086E+01  4.842304232E-07  0.00000E+00  9.000E+00
#rwgt            1           1   2.9224408099893472E-002           8       30290           0
</event>
<event>
      5   9999  3.79277E-02  8.09968E+01 -1.00000E+00  1.28090E-01
      21    -1     0     0   512   501  0.000000000E+00  0.000000000E+00  7.874546789E+02  7.874546789E+02  0.000000000E+00  0.00000E+00  9.000E+00
      21    -1     0     0   501   502  0.000000000E+00  0.000000000E+00 -1.204043447E+02  1.204043447E+02  0.000000000E+00  0.00000E+00  9.000E+00
      25     1     1     2     0     0  1.495678898E+02  1.055208149E+02  4.100574193E+01  2.254144337E+02  1.250000000E+02  0.00000E+00  9.000E+00
      25     1     1     2     0     0 -1.236455518E+02 -2.878413679E+01  5.153784445E+02  5.453042179E+02  1.250000000E+02  0.00000E+00  9.000E+00
      21     1     1     2   512   502 -2.592233800E+01 -7.673667809E+01  1.106661478E+02  1.371403720E+02  2.697398305E-06  0.00000E+00  9.000E+00
#rwgt            1           1   4.8199450558189499E-002           8       30412           0
</event>
<event>
      5   9999  3.79277E-02  1.64659E+01 -1.00000E+00  1.73652E-01
      21    -1     0     0   502   501  0.000000000E+00  0.000000000E+00  2.628205567E+02  2.628205567E+02  0.000000000E+00  0.00000E+00  9.000E+00
      21    -1     0     0   501   511  0.000000000E+00  0.000000000E+00 -1.995077099E+02  1.995077099E+02  0.000000000E+00  0.00000E+00  9.000E+00
      25     1     1     2     0     0  1.224854571E+01 -1.634580550E+02  1.098522311E+01  2.064321625E+02  1.250000000E+02  0.00000E+00  9.000E+00
      25     1     1     2     0     0  1.820571599E+00  1.720128453E+02  7.706787758E+01  2.261773446E+02  1.250000000E+02  0.00000E+00  9.000E+00
      21     1     1     2   502   511 -1.406911731E+01 -8.554790376E+00 -2.474025388E+01  2.971875944E+01  0.000000000E+00  0.00000E+00  9.000E+00
#rwgt            1           1   2.7889944946866887E-002           8       30504           0
</event>
<event>
      5   9999 -3.79277E-02  9.31621E+00 -1.00000E+00  1.99382E-01
      21    -1     0     0   502   512  0.000000000E+00  0.000000000E+00  6.336222119E+01  6.336222119E+01  0.000000000E+00  0.00000E+00  9.000E+00
      21    -1     0     0   501   502  0.000000000E+00  0.000000000E+00 -8.707554678E+02  8.707554678E+02  0.000000000E+00  0.00000E+00  9.000E+00
      25     1     1     2     0     0 -1.482429852E+02  1.274689423E+02 -3.755054964E+02  4.414223507E+02  1.250000000E+02  0.00000E+00  9.000E+00
      25     1     1     2     0     0  1.391165346E+02 -1.293396850E+02 -4.198490287E+02  4.774729011E+02  1.250000000E+02  0.00000E+00  9.000E+00
      21     1     1     2   501   512  9.126450607E+00  1.870742675E+00 -1.203872145E+01  1.522243716E+01  1.685873940E-07  0.00000E+00  9.000E+00
#rwgt            1           1  -7.4003443041713537E-002           8       30648           0
</event>
<event>
      5   9999 -3.79277E-02  1.82952E+01 -1.00000E+00  1.69626E-01
       2    -1     0     0   502     0  0.000000000E+00  0.000000000E+00  1.026775455E+03  1.026775455E+03  0.000000000E+00  0.00000E+00  9.000E+00
      21    -1     0     0   501   502  0.000000000E+00  0.000000000E+00 -7.604965582E+01  7.604965582E+01  0.000000000E+00  0.00000E+00  9.000E+00
      25     1     1     2     0     0 -1.211748933E+02 -1.578037674E+02  2.316646132E+02  3.299679935E+02  1.250000000E+02  0.00000E+00  9.000E+00
      25     1     1     2     0     0  1.294354584E+02  1.741278783E+02  5.686683826E+02  6.213556029E+02  1.250000000E+02  0.00000E+00  9.000E+00
       2     1     1     2   501     0 -8.260565114E+00 -1.632411096E+01  1.503928038E+02  1.515015147E+02  0.000000000E+00  0.00000E+00  9.000E+00
#rwgt            1           1  -2.9306558010544995E-002           8       30895           0
</event>
<event>
      5   9999  3.79277E-02  8.60713E+01 -1.00000E+00  1.26830E-01
      21    -1     0     0   502   511  0.000000000E+00  0.000000000E+00  1.678036396E+02  1.678036396E+02  0.000000000E+00  0.00000E+00  9.000E+00
      21    -1     0     0   501   502  0.000000000E+00  0.000000000E+00 -9.471292726E+02  9.471292726E+02  0.000000000E+00  0.00000E+00  9.000E+00
      25     1     1     2     0     0  1.718601770E+02 -1.253725125E+02 -7.335827014E+02  7.739656110E+02  1.250000000E+02  0.00000E+00  9.000E+00
      25     1     1     2     0     0 -1.120341724E+02  1.872523099E+02 -4.070380555E+01  2.547486666E+02  1.250000000E+02  0.00000E+00  9.000E+00
      21     1     1     2   501   511 -5.982600460E+01 -6.187979742E+01 -5.039126047E+00  8.621863457E+01  1.307231915E-06  0.00000E+00  9.000E+00
#rwgt            1           1   6.4994370636730775E-002           8       31050           0
</event>
<event>
      5   9999  3.79277E-02  8.61208E+01 -1.00000E+00  1.26819E-01
      21    -1     0     0   502   512  0.000000000E+00  0.000000000E+00  2.563013985E+02  2.563013985E+02  0.000000000E+00  0.00000E+00  9.000E+00
      21    -1     0     0   501   502  0.000000000E+00  0.000000000E+00 -1.251204117E+02  1.251204117E+02  0.000000000E+00  0.00000E+00  9.000E+00
      25     1     1     2     0     0 -3.567934824E+00  4.935976207E+01  1.856678436E+01  1.357160335E+02  1.250000000E+02  0.00000E+00  9.000E+00
      25     1     1     2     0     0  2.736711146E+01  3.340732587E+01  6.714937645E+01  1.483207570E+02  1.250000000E+02  0.00000E+00  9.000E+00
      21     1     1     2   501   512 -2.379917663E+01 -8.276708794E+01  4.546482601E+01  9.738501968E+01  1.651812370E-06  0.00000E+00  9.000E+00
#rwgt            1           1   3.8949141251377953E-003           8       31131           0
</event>
<event>
      5   9999  3.79277E-02  1.19782E+01 -1.00000E+00  1.87111E-01
      21    -1     0     0   502   501  0.000000000E+00  0.000000000E+00  1.341861133E+02  1.341861133E+02  0.000000000E+00  0.00000E+00  9.000E+00
      21    -1     0     0   511   502  0.000000000E+00  0.000000000E+00 -6.992733974E+02  6.992733974E+02  0.000000000E+00  0.00000E+00  9.000E+00
      25     1     1     2     0     0 -8.218586406E+01 -1.194444436E+02 -2.861771300E+02  3.443019621E+02  1.250000000E+02  0.00000E+00  9.000E+00
      25     1     1     2     0     0  7.031589738E+01  1.178379253E+02  2.297281644E+01  1.870370347E+02  1.250000000E+02  0.00000E+00  9.000E+00
      21     1     1     2   511   501  1.186996668E+01  1.606518273E+00 -3.018829705E+02  3.021205139E+02  5.394796609E-06  0.00000E+00  9.000E+00
#rwgt            1           1   4.9384954890911215E-002           8       31190           0
</event>
<event>
      5   9999  3.79277E-02  2.72153E+01 -1.00000E+00  1.56038E-01
      21    -1     0     0   502   501  0.000000000E+00  0.000000000E+00  2.427277987E+02  2.427277987E+02  0.000000000E+00  0.00000E+00  9.000E+00
       2    -1     0     0   501     0  0.000000000E+00  0.000000000E+00 -1.202246727E+03  1.202246727E+03  0.000000000E+00  0.00000E+00  9.000E+00
      25     1     1     2     0     0  3.754027850E+01 -1.817474418E+02  1.621255048E+02  2.763169999E+02  1.250000000E+02  0.00000E+00  9.000E+00
      25     1     1     2     0     0 -2.940720732E+01  2.077190276E+02 -6.212593535E+02  6.675328925E+02  1.250000000E+02  0.00000E+00  9.000E+00
       2     1     1     2   502     0 -8.133071187E+00 -2.597158582E+01 -5.003850795E+02  5.011246331E+02  5.394796609E-06  0.00000E+00  9.000E+00
#rwgt            1           1   4.1691368984368204E-002           8       31498           0
</event>
<event>
      5   9999  3.79277E-02  7.41390E+01 -1.00000E+00  1.29969E-01
       1    -1     0     0   502     0  0.000000000E+00  0.000000000E+00  2.292871809E+03  2.292871809E+03  0.000000000E+00  0.00000E+00  9.000E+00
      21    -1     0     0   501   502  0.000000000E+00  0.000000000E+00 -2.228499318E+02  2.228499318E+02  0.000000000E+00  0.00000E+00  9.000E+00
      25     1     1     2     0     0 -1.667237054E+01  4.203527283E+01 -1.555803208E+02  2.046342305E+02  1.250000000E+02  0.00000E+00  9.000E+00
      25     1     1     2     0     0  6.908931317E+01  1.039622409E+01  7.966233344E+01  1.638673306E+02  1.250000000E+02  0.00000E+00  9.000E+00
       1     1     1     2   501     0 -5.241694262E+01 -5.243149692E+01  2.145939865E+03  2.147220180E+03  3.051757812E-05  0.00000E+00  9.000E+00
#rwgt            1           1   4.7457110394697855E-002           8       31640           0
</event>
<event>
      5   9999  3.79277E-02  7.29844E+01 -1.00000E+00  1.30309E-01
      21    -1     0     0   502   501  0.000000000E+00  0.000000000E+00  3.933230903E+01  3.933230903E+01  0.000000000E+00  0.00000E+00  9.000E+00
      21    -1     0     0   511   502  0.000000000E+00  0.000000000E+00 -1.609891240E+03  1.609891240E+03  0.000000000E+00  0.00000E+00  9.000E+00
      25     1     1     2     0     0 -3.665810727E+01  8.732438548E+01 -9.562560781E+02  9.690304701E+02  1.250000000E+02  0.00000E+00  9.000E+00
      25     1     1     2     0     0 -3.341904442E+01 -6.693026447E+01 -1.460325380E+02  2.062692294E+02  1.250000000E+02  0.00000E+00  9.000E+00
      21     1     1     2   511   501  7.007715170E+01 -2.039412101E+01 -4.682703152E+02  4.739238499E+02  9.344061824E-06  0.00000E+00  9.000E+00
#rwgt            1           1   4.5191677198501000E-002           8       31826           0
</event>
<event>
      5   9999  3.79277E-02  1.63398E+01 -1.00000E+00  1.73953E-01
      21    -1     0     0   502   501  0.000000000E+00  0.000000000E+00  6.691269426E+02  6.691269426E+02  0.000000000E+00  0.00000E+00  9.000E+00
      21    -1     0     0   512   502  0.000000000E+00  0.000000000E+00 -1.610194553E+02  1.610194553E+02  0.000000000E+00  0.00000E+00  9.000E+00
      25     1     1     2     0     0  2.639019084E+02 -9.311958326E+01  1.556316665E+02  3.437465485E+02  1.250000000E+02  0.00000E+00  9.000E+00
      25     1     1     2     0     0 -2.742875197E+02  8.050504347E+01  3.515573033E+02  4.700342998E+02  1.250000000E+02  0.00000E+00  9.000E+00
      21     1     1     2   512   501  1.038561134E+01  1.261453978E+01  9.185175443E-01  1.636554952E+01  2.606638623E-07  0.00000E+00  9.000E+00
#rwgt            1           1   3.2071542298071916E-002           8       31932           0
</event>
<event>
      5   9999 -3.79277E-02  2.69419E+01 -1.00000E+00  1.56355E-01
      21    -1     0     0   502   501  0.000000000E+00  0.000000000E+00  1.771034661E+02  1.771034661E+02  0.000000000E+00  0.00000E+00  9.000E+00
      21    -1     0     0   511   502  0.000000000E+00  0.000000000E+00 -6.291025972E+02  6.291025972E+02  0.000000000E+00  0.00000E+00  9.000E+00
      25     1     1     2     0     0 -1.332702271E+02  2.318480097E+02 -3.353518894E+02  4.467665417E+02  1.250000000E+02  0.00000E+00  9.000E+00
      25     1     1     2     0     0  1.497636178E+02 -2.105445802E+02 -5.511629810E+01  2.922686569E+02  1.250000000E+02  0.00000E+00  9.000E+00
      21     1     1     2   511   501 -1.649339077E+01 -2.130342955E+01 -6.153094359E+01  6.717086474E+01  9.536743164E-07  0.00000E+00  9.000E+00
#rwgt            1           1 -0.17449929107341353                8       32080           0
</event>
<event>
      5   9999  3.79277E-02  1.04480E+01 -1.00000E+00  1.93582E-01
      21    -1     0     0   512   501  0.000000000E+00  0.000000000E+00  6.000472092E+02  6.000472092E+02  0.000000000E+00  0.00000E+00  9.000E+00
      21    -1     0     0   501   502  0.000000000E+00  0.000000000E+00 -6.283154678E+01  6.283154678E+01  0.000000000E+00  0.00000E+00  9.000E+00
      25     1     1     2     0     0  1.072622158E+02 -2.478954785E+01  1.324826133E+02  2.128293858E+02  1.250000000E+02  0.00000E+00  9.000E+00
      25     1     1     2     0     0 -1.145021076E+02  1.725661475E+01  3.017293179E+02  3.465171059E+02  1.250000000E+02  0.00000E+00  9.000E+00
      21     1     1     2   512   502  7.239891810E+00  7.532933103E+00  1.030037311E+02  1.035322643E+02  0.000000000E+00  0.00000E+00  9.000E+00
#rwgt            1           1   3.8271068728920374E-002           8       32240           0
</event>
<event>
      5   9999  3.79277E-02  6.77794E+01 -1.00000E+00  1.31934E-01
      21    -1     0     0   511   501  0.000000000E+00  0.000000000E+00  3.738014526E+02  3.738014526E+02  0.000000000E+00  0.00000E+00  9.000E+00
      21    -1     0     0   501   502  0.000000000E+00  0.000000000E+00 -1.493599038E+02  1.493599038E+02  0.000000000E+00  0.00000E+00  9.000E+00
      25     1     1     2     0     0  1.454067824E+02 -7.452489103E+01  2.809544233E+00  2.057425218E+02  1.250000000E+02  0.00000E+00  9.000E+00
      25     1     1     2     0     0 -9.269676672E+01  3.191382418E+01  1.446228793E+02  2.148300723E+02  1.250000000E+02  0.00000E+00  9.000E+00
      21     1     1     2   511   502 -5.271001567E+01  4.261106685E+01  7.700912522E+01  1.025887622E+02  2.336015456E-06  0.00000E+00  9.000E+00
#rwgt            1           1   5.5309485935268403E-002           8       32412           0
</event>
<event>
      5   9999  3.79277E-02  1.63668E+02 -1.00000E+00  1.14912E-01
      21    -1     0     0   512   501  0.000000000E+00  0.000000000E+00  2.472420147E+02  2.472420147E+02  0.000000000E+00  0.00000E+00  9.000E+00
      21    -1     0     0   501   502  0.000000000E+00  0.000000000E+00 -6.740515197E+02  6.740515197E+02  0.000000000E+00  0.00000E+00  9.000E+00
      25     1     1     2     0     0  3.863197825E+01  8.822542093E+01  3.762323802E+01  1.622241125E+02  1.250000000E+02  0.00000E+00  9.000E+00
      25     1     1     2     0     0 -1.711522025E+02 -1.842758593E+02 -5.159920088E+02  5.874720605E+02  1.250000000E+02  0.00000E+00  9.000E+00
      21     1     1     2   512   502  1.325202243E+02  9.605043840E+01  5.155926570E+01  1.715973614E+02  2.023048729E-06  0.00000E+00  9.000E+00
#rwgt            2          11   2.2516694695830499E-003           8       32506           0
</event>
<event>
      5   9999  3.79277E-02  3.72711E+01 -1.00000E+00  1.46769E-01
      21    -1     0     0   502   511  0.000000000E+00  0.000000000E+00  5.590370154E+01  5.590370154E+01  0.000000000E+00  0.00000E+00  9.000E+00
      21    -1     0     0   501   502  0.000000000E+00  0.000000000E+00 -9.682518890E+02  9.682518890E+02  0.000000000E+00  0.00000E+00  9.000E+00
      25     1     1     2     0     0  6.742384384E+01  1.172107012E+02 -5.623892539E+02  5.917693775E+02  1.250000000E+02  0.00000E+00  9.000E+00
      25     1     1     2     0     0 -7.864468185E+01 -1.527525742E+02 -3.220533849E+02  3.858260199E+02  1.250000000E+02  0.00000E+00  9.000E+00
      21     1     1     2   501   511  1.122083802E+01  3.554187301E+01 -2.790554870E+01  4.656019320E+01  4.768371582E-07  0.00000E+00  9.000E+00
#rwgt            1           1  0.18952658692370472                8       32556           0
</event>
<event>
      5   9999  3.79277E-02  5.67459E+01 -1.00000E+00  1.36010E-01
      21    -1     0     0   512   501  0.000000000E+00  0.000000000E+00  4.303314955E+01  4.303314955E+01  0.000000000E+00  0.00000E+00  9.000E+00
      21    -1     0     0   501   502  0.000000000E+00  0.000000000E+00 -1.335611687E+03  1.335611687E+03  0.000000000E+00  0.00000E+00  9.000E+00
      25     1     1     2     0     0  8.997826526E+01 -9.164095000E+01 -7.749736868E+02  7.954265316E+02  1.250000000E+02  0.00000E+00  9.000E+00
      25     1     1     2     0     0 -6.644828870E+01  1.432784654E+02 -4.609360809E+02  5.030220317E+02  1.250000000E+02  0.00000E+00  9.000E+00
      21     1     1     2   512   502 -2.352997656E+01 -5.163751539E+01 -5.666877011E+01  8.019627360E+01  2.132480600E-06  0.00000E+00  9.000E+00
#rwgt            1           1  0.15796702119179673                8       32883           0
</event>
<event>
      5   9999  3.79277E-02  3.30816E+01 -1.00000E+00  1.50148E-01
      21    -1     0     0   502   501  0.000000000E+00  0.000000000E+00  3.276837518E+02  3.276837518E+02  0.000000000E+00  0.00000E+00  9.000E+00
      21    -1     0     0   511   502  0.000000000E+00  0.000000000E+00 -4.242163812E+02  4.242163812E+02  0.000000000E+00  0.00000E+00  9.000E+00
      25     1     1     2     0     0  1.544597034E+01  4.702337450E+01  2.706787892E+02  3.022280309E+02  1.250000000E+02  0.00000E+00  9.000E+00
      25     1     1     2     0     0  1.671542741E+01 -5.477184576E+01 -7.700947652E+01  1.575906726E+02  1.250000000E+02  0.00000E+00  9.000E+00
      21     1     1     2   511   501 -3.216139776E+01  7.748471266E+00 -2.902019420E+02  2.920814295E+02  3.814697266E-06  0.00000E+00  9.000E+00
#rwgt            1           1   3.1786846888598473E-002           8       32958           0
</event>
<event>
      5   9999  3.79277E-02  5.50489E+01 -1.00000E+00  1.36733E-01
      21    -1     0     0   502   501  0.000000000E+00  0.000000000E+00  2.733821392E+02  2.733821392E+02  0.000000000E+00  0.00000E+00  9.000E+00
      21    -1     0     0   501   512  0.000000000E+00  0.000000000E+00 -1.915828294E+02  1.915828294E+02  0.000000000E+00  0.00000E+00  9.000E+00
      25     1     1     2     0     0  9.366641531E+00  2.661959927E+01 -1.048358454E+02  1.655653693E+02  1.250000000E+02  0.00000E+00  9.000E+00
      25     1     1     2     0     0 -2.481347764E+01  2.621763151E+01  2.037530574E+02  2.417506593E+02  1.250000000E+02  0.00000E+00  9.000E+00
      21     1     1     2   502   512  1.544683611E+01 -5.283723079E+01 -1.711790218E+01  5.764893995E+01  4.129530925E-07  0.00000E+00  9.000E+00
#rwgt            1           1   4.4459000140484012E-002           8       33135           0
</event>
<event>
      5   9999  3.79277E-02  3.22184E+01 -1.00000E+00  1.50919E-01
      21    -1     0     0   502   501  0.000000000E+00  0.000000000E+00  3.764066016E+01  3.764066016E+01  0.000000000E+00  0.00000E+00  9.000E+00
       2    -1     0     0   501     0  0.000000000E+00  0.000000000E+00 -2.867663675E+03  2.867663675E+03  0.000000000E+00  0.00000E+00  9.000E+00
      25     1     1     2     0     0 -1.659215902E+02  5.554554106E+01 -7.944136784E+02  8.230026571E+02  1.250000000E+02  0.00000E+00  9.000E+00
      25     1     1     2     0     0  1.607937707E+02 -8.735320592E+01 -5.065657068E+02  5.529186510E+02  1.250000000E+02  0.00000E+00  9.000E+00
       2     1     1     2   502     0  5.127819505E+00  3.180766486E+01 -1.529043630E+03  1.529383027E+03  2.157918644E-05  0.00000E+00  9.000E+00
#rwgt            1           1   3.9905400027226111E-002           8       33256           0
</event>
<event>
      5   9999  3.79277E-02  5.73301E+01 -1.00000E+00  1.35768E-01
      21    -1     0     0   511   501  0.000000000E+00  0.000000000E+00  9.696447555E+02  9.696447555E+02  0.000000000E+00  0.00000E+00  9.000E+00
      21    -1     0     0   501   502  0.000000000E+00  0.000000000E+00 -1.022366520E+02  1.022366520E+02  0.000000000E+00  0.00000E+00  9.000E+00
      25     1     1     2     0     0  3.623704199E+01  2.437206781E+01 -4.478454340E+01  1.397775956E+02  1.250000000E+02  0.00000E+00  9.000E+00
      25     1     1     2     0     0 -7.968841321E-01  2.069161826E+01  4.935578616E+02  5.095617144E+02  1.250000000E+02  0.00000E+00  9.000E+00
      21     1     1     2   511   502 -3.544015786E+01 -4.506368607E+01  4.186347854E+02  4.225420975E+02  7.629394531E-06  0.00000E+00  9.000E+00
#rwgt            1           1   3.4329674440740345E-002           8       33382           0
</event>
<event>
      5   9999  3.79277E-02  1.34858E+02 -1.00000E+00  1.18255E-01
      21    -1     0     0   502   501  0.000000000E+00  0.000000000E+00  1.048753417E+03  1.048753417E+03  0.000000000E+00  0.00000E+00  9.000E+00
      21    -1     0     0   512   502  0.000000000E+00  0.000000000E+00 -1.673974761E+02  1.673974761E+02  0.000000000E+00  0.00000E+00  9.000E+00
      25     1     1     2     0     0 -4.008993417E+01  2.929668065E+02  3.380917672E+02  4.662271931E+02  1.250000000E+02  0.00000E+00  9.000E+00
      25     1     1     2     0     0  1.615830232E+02 -2.344342975E+02  5.299068144E+02  6.144060100E+02  1.250000000E+02  0.00000E+00  9.000E+00
      21     1     1     2   512   501 -1.214930890E+02 -5.853250901E+01  1.335735941E+01  1.355176902E+02  1.066240300E-06  0.00000E+00  9.000E+00
#rwgt            2          11   2.7292146352798502E-003           8       33491           0
</event>
<event>
      5   9999  3.79277E-02  1.12196E+02 -1.00000E+00  1.21621E-01
       2    -1     0     0   502     0  0.000000000E+00  0.000000000E+00  2.489236948E+03  2.489236948E+03  0.000000000E+00  0.00000E+00  9.000E+00
      21    -1     0     0   501   502  0.000000000E+00  0.000000000E+00 -1.076650853E+02  1.076650853E+02  0.000000000E+00  0.00000E+00  9.000E+00
      25     1     1     2     0     0  1.920298730E+02 -3.495327538E+02  5.494627765E+02  6.903498830E+02  1.250000000E+02  0.00000E+00  9.000E+00
      25     1     1     2     0     0 -2.792327154E+02  2.789375116E+02  1.382787912E+03  1.443434950E+03  1.250000000E+02  0.00000E+00  9.000E+00
       2     1     1     2   501     0  8.720284243E+01  7.059524223E+01  4.493211740E+02  4.631172004E+02  0.000000000E+00  0.00000E+00  9.000E+00
#rwgt            1           1  0.15681933901614167                8       33541           0
</event>
<event>
      5   9999  3.79277E-02  4.54476E+01 -1.00000E+00  1.41483E-01
      21    -1     0     0   502   511  0.000000000E+00  0.000000000E+00  1.233062645E+02  1.233062645E+02  0.000000000E+00  0.00000E+00  9.000E+00
      21    -1     0     0   501   502  0.000000000E+00  0.000000000E+00 -1.103599106E+03  1.103599106E+03  0.000000000E+00  0.00000E+00  9.000E+00
      25     1     1     2     0     0 -1.126958343E+02 -8.147676957E+01 -4.169912285E+02  4.569961703E+02  1.250000000E+02  0.00000E+00  9.000E+00
      25     1     1     2     0     0  6.878733221E+01  9.320398621E+01 -6.500275372E+02  6.719966363E+02  1.250000000E+02  0.00000E+00  9.000E+00
      21     1     1     2   501   511  4.390850205E+01 -1.172721664E+01  8.672592443E+01  9.791256370E+01  9.536743164E-07  0.00000E+00  9.000E+00
#rwgt            1           1   2.9880419614857035E-002           8       33665           0
</event>
<event>
      5   9999  3.79277E-02  3.60080E+01 -1.00000E+00  1.47730E-01
       2    -1     0     0   502     0  0.000000000E+00  0.000000000E+00  4.422826779E+03  4.422826779E+03  0.000000000E+00  0.00000E+00  9.000E+00
      21    -1     0     0   501   502  0.000000000E+00  0.000000000E+00 -5.444370968E+01  5.444370968E+01  0.000000000E+00  0.00000E+00  9.000E+00
      25     1     1     2     0     0 -1.431899884E+01 -7.255283591E+01  5.841238726E+01  1.565437789E+02  1.250000000E+02  0.00000E+00  9.000E+00
      25     1     1     2     0     0 -1.721024647E+01  5.516071430E+01  8.920883883E+02  9.026547455E+02  1.250000000E+02  0.00000E+00  9.000E+00
       2     1     1     2   501     0  3.152924531E+01  1.739212161E+01  3.417882294E+03  3.418071964E+03  6.103515625E-05  0.00000E+00  9.000E+00
#rwgt            1           1   4.6045393209557757E-002           8       33827           0
</event>
<event>
      5   9999  3.79277E-02  3.55298E+01 -1.00000E+00  1.48106E-01
      21    -1     0     0   511   501  0.000000000E+00  0.000000000E+00  2.233547879E+02  2.233547879E+02  0.000000000E+00  0.00000E+00  9.000E+00
      21    -1     0     0   501   502  0.000000000E+00  0.000000000E+00 -2.569113938E+02  2.569113938E+02  0.000000000E+00  0.00000E+00  9.000E+00
      25     1     1     2     0     0  1.393597441E+02  1.007965252E+02 -4.416130323E+01  2.171550102E+02  1.250000000E+02  0.00000E+00  9.000E+00
      25     1     1     2     0     0 -1.328271090E+02 -1.357205869E+02  1.020532324E+01  2.275791450E+02  1.250000000E+02  0.00000E+00  9.000E+00
      21     1     1     2   511   502 -6.532635046E+00  3.492406165E+01  3.993741150E-01  3.553202644E+01  3.491851138E-07  0.00000E+00  9.000E+00
#rwgt            1           1   4.8962934464850373E-002           8       33936           0
</event>
<event>
      5   9999  3.79277E-02  2.28007E+01 -1.00000E+00  1.61806E-01
      21    -1     0     0   502   501  0.000000000E+00  0.000000000E+00  9.137904485E+01  9.137904485E+01  0.000000000E+00  0.00000E+00  9.000E+00
      21    -1     0     0   501   512  0.000000000E+00  0.000000000E+00 -4.802363757E+02  4.802363757E+02  0.000000000E+00  0.00000E+00  9.000E+00
      25     1     1     2     0     0 -3.197473094E+01  1.178957876E+02 -2.065947634E+02  2.706070886E+02  1.250000000E+02  0.00000E+00  9.000E+00
      25     1     1     2     0     0  2.138893827E+01 -1.380901743E+02 -9.377599993E+01  2.096313934E+02  1.250000000E+02  0.00000E+00  9.000E+00
      21     1     1     2   502   512  1.058579267E+01  2.019438673E+01 -8.848656757E+01  9.137693856E+01  1.651812370E-06  0.00000E+00  9.000E+00
#rwgt            1           1   2.7379004311070050E-002           8       34073           0
</event>
<event>
      5   9999  3.79277E-02  5.30952E+01 -1.00000E+00  1.37603E-01
      21    -1     0     0   502   511  0.000000000E+00  0.000000000E+00  1.186845642E+02  1.186845642E+02  0.000000000E+00  0.00000E+00  9.000E+00
      21    -1     0     0   501   502  0.000000000E+00  0.000000000E+00 -6.311195750E+02  6.311195750E+02  0.000000000E+00  0.00000E+00  9.000E+00
      25     1     1     2     0     0 -6.832531945E+01  8.394272158E+01 -4.746432099E+02  5.026190471E+02  1.250000000E+02  0.00000E+00  9.000E+00
      25     1     1     2     0     0  1.153290572E+02 -5.924960485E+01  3.165092954E+00  1.801286344E+02  1.250000000E+02  0.00000E+00  9.000E+00
      21     1     1     2   501   511 -4.700373779E+01 -2.469311672E+01 -4.095689384E+01  6.705645780E+01  4.768371582E-07  0.00000E+00  9.000E+00
#rwgt            1           1   3.1870688862955701E-002           8       34258           0
</event>
<event>
      5   9999  3.79277E-02  6.07315E+01 -1.00000E+00  1.34423E-01
      21    -1     0     0   512   501  0.000000000E+00  0.000000000E+00  2.340659587E+03  2.340659587E+03  0.000000000E+00  0.00000E+00  9.000E+00
      21    -1     0     0   501   502  0.000000000E+00  0.000000000E+00 -4.398570738E+01  4.398570738E+01  0.000000000E+00  0.00000E+00  9.000E+00
      25     1     1     2     0     0 -2.208708944E+02 -1.239212400E+02  1.302748589E+03  1.333011370E+03  1.250000000E+02  0.00000E+00  9.000E+00
      25     1     1     2     0     0  2.244876706E+02  6.329748846E+01  6.402396172E+02  6.927720071E+02  1.250000000E+02  0.00000E+00  9.000E+00
      21     1     1     2   512   502 -3.616776215E+00  6.062375157E+01  3.536856738E+02  3.588619179E+02  6.607249480E-06  0.00000E+00  9.000E+00
#rwgt            2          11   1.8845696938232679E-003           8       34391           0
</event>
<event>
      5   9999 -3.79277E-02  1.20110E+01 -1.00000E+00  1.86986E-01
      21    -1     0     0   511   501  0.000000000E+00  0.000000000E+00  1.005525056E+03  1.005525056E+03  0.000000000E+00  0.00000E+00  9.000E+00
      21    -1     0     0   501   502  0.000000000E+00  0.000000000E+00 -5.197040516E+01  5.197040516E+01  0.000000000E+00  0.00000E+00  9.000E+00
      25     1     1     2     0     0  5.919194136E+01 -1.243930823E+02  4.103574215E+02  4.505502616E+02  1.250000000E+02  0.00000E+00  9.000E+00
      25     1     1     2     0     0 -5.486229470E+01  1.355965269E+02  2.597889526E+02  3.232825226E+02  1.250000000E+02  0.00000E+00  9.000E+00
      21     1     1     2   511   502 -4.329646660E+00 -1.120344459E+01  2.834082768E+02  2.836626771E+02  0.000000000E+00  0.00000E+00  9.000E+00
#rwgt            1           1 -0.11961244301452389                8       34501           0
</event>
<event>
      5   9999  3.79277E-02  1.94694E+01 -1.00000E+00  1.67338E-01
      21    -1     0     0   502   501  0.000000000E+00  0.000000000E+00  4.662894335E+02  4.662894335E+02  0.000000000E+00  0.00000E+00  9.000E+00
      21    -1     0     0   501   512  0.000000000E+00  0.000000000E+00 -2.578414747E+02  2.578414747E+02  0.000000000E+00  0.00000E+00  9.000E+00
      25     1     1     2     0     0  1.151375333E+02  2.643810577E+02  2.828930268E+01  3.155618480E+02  1.250000000E+02  0.00000E+00  9.000E+00
      25     1     1     2     0     0 -1.328953813E+02 -2.723632987E+02  1.973108482E+02  3.826219017E+02  1.250000000E+02  0.00000E+00  9.000E+00
      21     1     1     2   502   512  1.775784808E+01  7.982240994E+00 -1.715219208E+01  2.594715848E+01  2.384185791E-07  0.00000E+00  9.000E+00
#rwgt            1           1   4.2186829252797160E-002           8       34704           0
</event>
<event>
      5   9999  3.79277E-02  4.80707E+01 -1.00000E+00  1.40058E-01
      21    -1     0     0   502   501  0.000000000E+00  0.000000000E+00  4.750672159E+02  4.750672159E+02  0.000000000E+00  0.00000E+00  9.000E+00
      21    -1     0     0   501   511  0.000000000E+00  0.000000000E+00 -1.866799879E+02  1.866799879E+02  0.000000000E+00  0.00000E+00  9.000E+00
      25     1     1     2     0     0  3.217005477E+01 -2.325923509E+02  8.328431458E+01  2.787389302E+02  1.250000000E+02  0.00000E+00  9.000E+00
      25     1     1     2     0     0 -7.553571442E+01  2.118507387E+02  2.133195827E+02  3.342403686E+02  1.250000000E+02  0.00000E+00  9.000E+00
      21     1     1     2   502   511  4.336565965E+01  2.074161221E+01 -8.216669255E+00  4.876790510E+01  3.953724850E-07  0.00000E+00  9.000E+00
#rwgt            1           1   3.5109547449551859E-002           8       34974           0
</event>
<event>
      5   9999  3.79277E-02  9.72243E+01 -1.00000E+00  1.24380E-01
      21    -1     0     0   502   501  0.000000000E+00  0.000000000E+00  1.888879849E+03  1.888879849E+03  0.000000000E+00  0.00000E+00  9.000E+00
      21    -1     0     0   501   512  0.000000000E+00  0.000000000E+00 -2.237571235E+02  2.237571235E+02  0.000000000E+00  0.00000E+00  9.000E+00
      25     1     1     2     0     0 -3.162910338E+01  4.856206083E+01  5.389758624E+02  5.563080569E+02  1.250000000E+02  0.00000E+00  9.000E+00
      25     1     1     2     0     0  2.659018635E+01 -1.456556964E+02  1.322819944E+03  1.336936881E+03  1.250000000E+02  0.00000E+00  9.000E+00
      21     1     1     2   502   512  5.038917034E+00  9.709363562E+01 -1.966730800E+02  2.193920353E+02  8.092194914E-06  0.00000E+00  9.000E+00
#rwgt            1           1   8.6958859190230817E-002           8       35090           0
</event>
<event>
      5   9999  3.79277E-02  1.59886E+02 -1.00000E+00  1.15306E-01
      21    -1     0     0   502   501  0.000000000E+00  0.000000000E+00  3.469572543E+02  3.469572543E+02  0.000000000E+00  0.00000E+00  9.000E+00
      -3    -1     0     0     0   502  0.000000000E+00  0.000000000E+00 -3.579119809E+02  3.579119809E+02  0.000000000E+00  0.00000E+00  9.000E+00
      25     1     1     2     0     0  1.175544623E+02  3.377362143E+01 -1.351838125E+02  2.210415623E+02  1.250000000E+02  0.00000E+00  9.000E+00
      25     1     1     2     0     0  1.767636162E+01  5.152602653E+01  2.470717439E+02  2.821999855E+02  1.250000000E+02  0.00000E+00  9.000E+00
      -3     1     1     2     0   501 -1.352308239E+02 -8.529964796E+01 -1.228426581E+02  2.016276874E+02  1.907348633E-06  0.00000E+00  9.000E+00
#rwgt            1           1   5.5231342901066315E-002           8       35164           0
</event>
<event>
      5   9999  3.79277E-02  1.11770E+02 -1.00000E+00  1.21693E-01
      21    -1     0     0   502   501  0.000000000E+00  0.000000000E+00  4.504295152E+02  4.504295152E+02  0.000000000E+00  0.00000E+00  9.000E+00
      21    -1     0     0   501   511  0.000000000E+00  0.000000000E+00 -1.627034324E+02  1.627034324E+02  0.000000000E+00  0.00000E+00  9.000E+00
      25     1     1     2     0     0 -1.111743496E+02 -5.864733358E+01  2.859192340E+02  3.364135166E+02  1.250000000E+02  0.00000E+00  9.000E+00
      25     1     1     2     0     0  1.045598589E+01  1.071073833E+02  1.104406331E+00  1.649470791E+02  1.250000000E+02  0.00000E+00  9.000E+00
      21     1     1     2   502   511  1.007183637E+02 -4.846004975E+01  7.024424372E-01  1.117723518E+02  2.365650270E-06  0.00000E+00  9.000E+00
#rwgt            1           1   3.8548712998025612E-002           8       35245           0
</event>
<event>
      5   9999  3.79277E-02  1.27835E+02 -1.00000E+00  1.19214E-01
      21    -1     0     0   502   501  0.000000000E+00  0.000000000E+00  1.525745926E+02  1.525745926E+02  0.000000000E+00  0.00000E+00  9.000E+00
      21    -1     0     0   501   512  0.000000000E+00  0.000000000E+00 -7.548590658E+02  7.548590658E+02  0.000000000E+00  0.00000E+00  9.000E+00
      25     1     1     2     0     0 -3.176002708E+01  9.571288744E+01  6.934795410E+01  1.749394035E+02  1.250000000E+02  0.00000E+00  9.000E+00
      25     1     1     2     0     0 -3.137726463E+01  1.544230783E+01 -5.108669605E+02  5.270987089E+02  1.250000000E+02  0.00000E+00  9.000E+00
      21     1     1     2   502   512  6.313729171E+01 -1.111551953E+02 -1.607654667E+02  2.053955461E+02  2.697398305E-06  0.00000E+00  9.000E+00
#rwgt            2          11   2.6732633474011625E-003           8       35522           0
</event>
<event>
      5   9999  3.79277E-02  2.41947E+02 -1.00000E+00  1.08718E-01
      21    -1     0     0   511   501  0.000000000E+00  0.000000000E+00  5.665193170E+02  5.665193170E+02  0.000000000E+00  0.00000E+00  9.000E+00
      21    -1     0     0   501   502  0.000000000E+00  0.000000000E+00 -4.604389583E+02  4.604389583E+02  0.000000000E+00  0.00000E+00  9.000E+00
      25     1     1     2     0     0  2.636357880E+02 -6.376115755E+00 -1.305316247E+00  2.918410311E+02  1.250000000E+02  0.00000E+00  9.000E+00
      25     1     1     2     0     0 -1.235125013E+02 -1.908644439E+02 -2.115754534E+02  3.347741723E+02  1.250000000E+02  0.00000E+00  9.000E+00
      21     1     1     2   511   502 -1.401232867E+02  1.972405597E+02  3.189611284E+02  4.003430720E+02  7.629394531E-06  0.00000E+00  9.000E+00
#rwgt            1           1   4.0526913242941526E-002           8       35572           0
</event>
<event>
      5   9999  3.79277E-02  5.03220E+01 -1.00000E+00  1.38917E-01
      21    -1     0     0   502   501  0.000000000E+00  0.000000000E+00  5.979385337E+02  5.979385337E+02  0.000000000E+00  0.00000E+00  9.000E+00
       3    -1     0     0   501     0  0.000000000E+00  0.000000000E+00 -3.461864316E+02  3.461864316E+02  0.000000000E+00  0.00000E+00  9.000E+00
      25     1     1     2     0     0  2.182637142E+02 -3.682194523E+01  4.256557243E+02  4.957849334E+02  1.250000000E+02  0.00000E+00  9.000E+00
      25     1     1     2     0     0 -1.777657291E+02  6.951989469E+00  4.643419127E+01  2.223288527E+02  1.250000000E+02  0.00000E+00  9.000E+00
       3     1     1     2   502     0 -4.049798511E+01  2.986995576E+01 -2.203378135E+02  2.260111792E+02  0.000000000E+00  0.00000E+00  9.000E+00
#rwgt            1           1   4.0830677255459774E-002           8       35687           0
</event>
<event>
      5   9999  3.79277E-02  5.05633E+01 -1.00000E+00  1.38798E-01
      21    -1     0     0   502   501  0.000000000E+00  0.000000000E+00  4.727912985E+02  4.727912985E+02  0.000000000E+00  0.00000E+00  9.000E+00
      21    -1     0     0   511   502  0.000000000E+00  0.000000000E+00 -1.618282076E+02  1.618282076E+02  0.000000000E+00  0.00000E+00  9.000E+00
      25     1     1     2     0     0 -1.740145792E+02 -8.166945983E+01  2.490760340E+01  2.306433679E+02  1.250000000E+02  0.00000E+00  9.000E+00
      25     1     1     2     0     0  1.470638873E+02  3.888735274E+01  2.929285904E+02  3.529478322E+02  1.250000000E+02  0.00000E+00  9.000E+00
      21     1     1     2   511   501  2.695069183E+01  4.278210710E+01 -6.873102902E+00  5.102830608E+01  5.264139692E-07  0.00000E+00  9.000E+00
#rwgt            1           1   3.9334501858279428E-002           8       35848           0
</event>
<event>
      5   9999  3.79277E-02  1.32505E+02 -1.00000E+00  1.18569E-01
      21    -1     0     0   502   501  0.000000000E+00  0.000000000E+00  1.863792809E+02  1.863792809E+02  0.000000000E+00  0.00000E+00  9.000E+00
      -4    -1     0     0     0   502  0.000000000E+00  0.000000000E+00 -8.146101011E+02  8.146101011E+02  0.000000000E+00  0.00000E+00  9.000E+00
      25     1     1     2     0     0  7.499972384E+01 -7.127930762E+01  1.078725705E+02  1.948517122E+02  1.250000000E+02  0.00000E+00  9.000E+00
      25     1     1     2     0     0  6.295513533E+00 -3.335636121E+01 -1.221183897E+02  1.780173627E+02  1.250000000E+02  0.00000E+00  9.000E+00
      -4     1     1     2     0   501 -8.129523737E+01  1.046356688E+02 -6.139850010E+02  6.281203071E+02  7.629394531E-06  0.00000E+00  9.000E+00
#rwgt            1           1   4.0787891383776802E-002           8       36011           0
</event>
<event>
      5   9999  3.79277E-02  4.30123E+01 -1.00000E+00  1.42911E-01
      21    -1     0     0   502   501  0.000000000E+00  0.000000000E+00  1.340259583E+03  1.340259583E+03  0.000000000E+00  0.00000E+00  9.000E+00
      -3    -1     0     0     0   502  0.000000000E+00  0.000000000E+00 -5.661908539E+01  5.661908539E+01  0.000000000E+00  0.00000E+00  9.000E+00
      25     1     1     2     0     0 -7.070650620E+01 -1.169673066E+01  1.519548424E+02  2.094074919E+02  1.250000000E+02  0.00000E+00  9.000E+00
      25     1     1     2     0     0  8.813133829E+01 -2.762799783E+01  1.133803923E+03  1.144406735E+03  1.250000000E+02  0.00000E+00  9.000E+00
      -3     1     1     2     0   501 -1.742483210E+01  3.932472849E+01 -2.118268130E+00  4.306444129E+01  1.314008694E-06  0.00000E+00  9.000E+00
#rwgt            1           1   4.4165526688719217E-002           8       36108           0
</event>
<event>
      5   9999  3.79277E-02  2.20567E+02 -1.00000E+00  1.10122E-01
      21    -1     0     0   502   511  0.000000000E+00  0.000000000E+00  2.858369057E+02  2.858369057E+02  0.000000000E+00  0.00000E+00  9.000E+00
      21    -1     0     0   501   502  0.000000000E+00  0.000000000E+00 -9.960827821E+02  9.960827821E+02  0.000000000E+00  0.00000E+00  9.000E+00
      25     1     1     2     0     0 -2.738067237E+02 -3.466679420E+01 -7.879322056E+02  8.441765628E+02  1.250000000E+02  0.00000E+00  9.000E+00
      25     1     1     2     0     0  6.020282105E+01  8.964898073E+01 -6.225562657E+01  1.765278518E+02  1.250000000E+02  0.00000E+00  9.000E+00
      21     1     1     2   501   511  2.136039026E+02 -5.498218653E+01  1.399419557E+02  2.612152734E+02  6.607249480E-06  0.00000E+00  9.000E+00
#rwgt            2          11   2.4734410161660683E-003           8       36385           0
</event>
<event>
      5   9999  3.79277E-02  7.31453E+01 -1.00000E+00  1.30261E-01
      21    -1     0     0   502   501  0.000000000E+00  0.000000000E+00  3.002958528E+01  3.002958528E+01  0.000000000E+00  0.00000E+00  9.000E+00
      21    -1     0     0   501   512  0.000000000E+00  0.000000000E+00 -2.084005866E+03  2.084005866E+03  0.000000000E+00  0.00000E+00  9.000E+00
      25     1     1     2     0     0  1.114558260E+02  6.828161582E+00 -2.859258822E+02  3.314327007E+02  1.250000000E+02  0.00000E+00  9.000E+00
      25     1     1     2     0     0 -6.919195499E+01  5.287108358E+01 -1.295190962E+03  1.304119437E+03  1.250000000E+02  0.00000E+00  9.000E+00
      21     1     1     2   502   512 -4.226387102E+01 -5.969924516E+01 -4.728594368E+02  4.784833138E+02  7.629394531E-06  0.00000E+00  9.000E+00
#rwgt            1           1   3.9365136024943501E-002           8       36420           0
</event>
<event>
      5   9999  3.79277E-02  1.73728E+02 -1.00000E+00  1.13921E-01
      21    -1     0     0   502   501  0.000000000E+00  0.000000000E+00  2.111832778E+03  2.111832778E+03  0.000000000E+00  0.00000E+00  9.000E+00
      21    -1     0     0   511   502  0.000000000E+00  0.000000000E+00 -1.294993453E+02  1.294993453E+02  0.000000000E+00  0.00000E+00  9.000E+00
      25     1     1     2     0     0 -7.961419420E+01 -1.529470528E+01  2.490045564E+02  2.901734258E+02  1.250000000E+02  0.00000E+00  9.000E+00
      25     1     1     2     0     0 -1.879008792E+01 -1.278769661E+02  1.765367544E+03  1.774500817E+03  1.250000000E+02  0.00000E+00  9.000E+00
      21     1     1     2   511   501  9.840428211E+01  1.431716714E+02 -3.203866798E+01  1.766578797E+02  6.572746635E-06  0.00000E+00  9.000E+00
#rwgt            1           1  0.14330502168897993                8       36523           0
</event>
<event>
      5   9999  3.79277E-02  8.48484E+01 -1.00000E+00  1.27125E-01
      21    -1     0     0   512   501  0.000000000E+00  0.000000000E+00  2.936677196E+02  2.936677196E+02  0.000000000E+00  0.00000E+00  9.000E+00
      21    -1     0     0   501   502  0.000000000E+00  0.000000000E+00 -2.152308198E+02  2.152308198E+02  0.000000000E+00  0.00000E+00  9.000E+00
      25     1     1     2     0     0  1.322967266E+02  7.499910080E+01 -7.559793214E+01  2.108727966E+02  1.250000000E+02  0.00000E+00  9.000E+00
      25     1     1     2     0     0 -4.851617906E+01 -8.841840516E+01  6.021703461E+01  1.715305374E+02  1.250000000E+02  0.00000E+00  9.000E+00
      21     1     1     2   512   502 -8.378054759E+01  1.341930436E+01  9.381779730E+01  1.264952053E+02  1.348699152E-06  0.00000E+00  9.000E+00
#rwgt            1           1   3.2493849557351094E-002           8       36641           0
</event>
<event>
      5   9999  3.79277E-02  1.53000E+02 -1.00000E+00  1.16054E-01
      21    -1     0     0   502   501  0.000000000E+00  0.000000000E+00  6.295147940E+02  6.295147940E+02  0.000000000E+00  0.00000E+00  9.000E+00
      21    -1     0     0   501   511  0.000000000E+00  0.000000000E+00 -2.279508417E+02  2.279508417E+02  0.000000000E+00  0.00000E+00  9.000E+00
      25     1     1     2     0     0 -4.006491584E+00  9.860483403E+01  8.410666187E+01  1.801052355E+02  1.250000000E+02  0.00000E+00  9.000E+00
      25     1     1     2     0     0 -1.458904836E+02 -6.794731872E+01  4.376694744E+02  4.827840512E+02  1.250000000E+02  0.00000E+00  9.000E+00
      21     1     1     2   502   511  1.498969751E+02 -3.065751531E+01 -1.202121840E+02  1.945763490E+02  3.015782986E-06  0.00000E+00  9.000E+00
#rwgt            1           1   3.2146980550630880E-002           8       36740           0
</event>
<event>
      5   9999  3.79277E-02  2.31244E+01 -1.00000E+00  1.61330E-01
      21    -1     0     0   502   501  0.000000000E+00  0.000000000E+00  1.061593019E+03  1.061593019E+03  0.000000000E+00  0.00000E+00  9.000E+00
       1    -1     0     0   501     0  0.000000000E+00  0.000000000E+00 -1.394116099E+03  1.394116099E+03  0.000000000E+00  0.00000E+00  9.000E+00
      25     1     1     2     0     0 -1.841883421E+02  1.573501293E+02  6.521980835E+02  7.068746343E+02  1.250000000E+02  0.00000E+00  9.000E+00
      25     1     1     2     0     0  1.610667971E+02 -1.577157218E+02  3.384677561E+02  4.254435144E+02  1.250000000E+02  0.00000E+00  9.000E+00
       1     1     1     2   502     0  2.312154497E+01  3.655925115E-01 -1.323188920E+03  1.323390969E+03  3.051757812E-05  0.00000E+00  9.000E+00
#rwgt            1           1   3.2779020160158885E-002           8       36827           0
</event>
<event>
      5   9999  3.79277E-02  1.02739E+02 -1.00000E+00  1.23302E-01
      21    -1     0     0   502   501  0.000000000E+00  0.000000000E+00  5.498030789E+02  5.498030789E+02  0.000000000E+00  0.00000E+00  9.000E+00
      21    -1     0     0   511   502  0.000000000E+00  0.000000000E+00 -3.362609256E+02  3.362609256E+02  0.000000000E+00  0.00000E+00  9.000E+00
      25     1     1     2     0     0  1.713904720E+02 -1.236670645E+01  2.363541517E+02  3.178300085E+02  1.250000000E+02  0.00000E+00  9.000E+00
      25     1     1     2     0     0 -1.433861597E+02 -8.648187800E+01  2.207049500E+02  3.039315399E+02  1.250000000E+02  0.00000E+00  9.000E+00
      21     1     1     2   511   501 -2.800431225E+01  9.884858445E+01 -2.435169484E+02  2.643024561E+02  2.697398305E-06  0.00000E+00  9.000E+00
#rwgt            1           1   3.1930856993098340E-002           8       36999           0
</event>
<event>
      5   9999  3.79277E-02  1.04364E+01 -1.00000E+00  1.93637E-01
      21    -1     0     0   502   501  0.000000000E+00  0.000000000E+00  5.482882722E+02  5.482882722E+02  0.000000000E+00  0.00000E+00  9.000E+00
      21    -1     0     0   512   502  0.000000000E+00  0.000000000E+00 -7.005715556E+01  7.005715556E+01  0.000000000E+00  0.00000E+00  9.000E+00
      25     1     1     2     0     0 -1.101019395E+02  6.602160902E+01  2.600232175E+02  3.157821458E+02  1.250000000E+02  0.00000E+00  9.000E+00
      25     1     1     2     0     0  1.192457074E+02 -7.105261018E+01  2.231518322E+02  2.910150380E+02  1.250000000E+02  0.00000E+00  9.000E+00
      21     1     1     2   512   501 -9.143767953E+00  5.031001160E+00 -4.943933048E+00  1.154824398E+01  3.526258339E-07  0.00000E+00  9.000E+00
#rwgt            1           1   3.2633756392502218E-002           8       37148           0
</event>
<event>
      5   9999  3.79277E-02  1.33974E+01 -1.00000E+00  1.82135E-01
      21    -1     0     0   502   501  0.000000000E+00  0.000000000E+00  6.121778357E+02  6.121778357E+02  0.000000000E+00  0.00000E+00  9.000E+00
      21    -1     0     0   501   511  0.000000000E+00  0.000000000E+00 -1.705184820E+02  1.705184820E+02  0.000000000E+00  0.00000E+00  9.000E+00
      25     1     1     2     0     0 -1.106301689E+02 -2.637861749E+02  1.656234818E+02  3.533812645E+02  1.250000000E+02  0.00000E+00  9.000E+00
      25     1     1     2     0     0  1.234182392E+02  2.597918000E+02  2.725030958E+02  4.154597193E+02  1.250000000E+02  0.00000E+00  9.000E+00
      21     1     1     2   502   511 -1.278807031E+01  3.994374898E+00  3.532776147E+00  1.385533400E+01  1.788139343E-07  0.00000E+00  9.000E+00
#rwgt            1           1   1.9390098580901832E-002           8       37480           0
</event>
<event>
      5   9999  3.79277E-02  5.21727E+01 -1.00000E+00  1.38030E-01
      21    -1     0     0   502   501  0.000000000E+00  0.000000000E+00  1.680325366E+02  1.680325366E+02  0.000000000E+00  0.00000E+00  9.000E+00
      21    -1     0     0   501   512  0.000000000E+00  0.000000000E+00 -5.316320967E+02  5.316320967E+02  0.000000000E+00  0.00000E+00  9.000E+00
      25     1     1     2     0     0  9.372152686E+01 -6.823993655E+01 -1.707213239E+02  2.412699401E+02  1.250000000E+02  0.00000E+00  9.000E+00
      25     1     1     2     0     0 -4.308775732E+01  8.081815346E+01  8.425993130E+01  1.763883919E+02  1.250000000E+02  0.00000E+00  9.000E+00
      21     1     1     2   502   512 -5.063376954E+01 -1.257821691E+01 -2.771381675E+02  2.820063014E+02  3.814697266E-06  0.00000E+00  9.000E+00
#rwgt            1           1   4.1985918094627823E-002           8       37748           0
</event>
<event>
      5   9999  3.79277E-02  3.50196E+01 -1.00000E+00  1.48515E-01
       2    -1     0     0   502     0  0.000000000E+00  0.000000000E+00  7.500348586E+01  7.500348586E+01  0.000000000E+00  0.00000E+00  9.000E+00
      21    -1     0     0   501   502  0.000000000E+00  0.000000000E+00 -8.727318298E+02  8.727318298E+02  0.000000000E+00  0.00000E+00  9.000E+00
      25     1     1     2     0     0 -1.054112805E+02 -8.477753128E+01 -4.778379554E+02  5.121063166E+02  1.250000000E+02  0.00000E+00  9.000E+00
      25     1     1     2     0     0  1.400943050E+02  7.993389468E+01 -3.390417591E+02  3.957147410E+02  1.250000000E+02  0.00000E+00  9.000E+00
       2     1     1     2   501     0 -3.468302446E+01  4.843636605E+00  1.915137061E+01  3.991425807E+01  8.920806376E-07  0.00000E+00  9.000E+00
#rwgt            1           1   5.1033477814474523E-002           8       37878           0
</event>
<event>
      5   9999  3.79277E-02  9.30762E+01 -1.00000E+00  1.25246E-01
      21    -1     0     0   511   501  0.000000000E+00  0.000000000E+00  4.370280062E+02  4.370280062E+02  0.000000000E+00  0.00000E+00  9.000E+00
      21    -1     0     0   501   502  0.000000000E+00  0.000000000E+00 -1.274695859E+02  1.274695859E+02  0.000000000E+00  0.00000E+00  9.000E+00
      25     1     1     2     0     0 -1.191892060E+02 -3.013272844E+01  1.250691801E+02  2.153632930E+02  1.250000000E+02  0.00000E+00  9.000E+00
      25     1     1     2     0     0  1.241674074E+02 -6.281029308E+01  6.576430943E+01  1.982741092E+02  1.250000000E+02  0.00000E+00  9.000E+00
      21     1     1     2   511   502 -4.978201359E+00  9.294302152E+01  1.187249308E+02  1.508601900E+02  1.348699152E-06  0.00000E+00  9.000E+00
#rwgt            1           1   3.5968869149802275E-002           8       38014           0
</event>
<event>
      5   9999  3.79277E-02  7.43673E+01 -1.00000E+00  1.29903E-01
       1    -1     0     0   502     0  0.000000000E+00  0.000000000E+00  1.882385755E+03  1.882385755E+03  0.000000000E+00  0.00000E+00  9.000E+00
      21    -1     0     0   501   502  0.000000000E+00  0.000000000E+00 -3.900886677E+02  3.900886677E+02  0.000000000E+00  0.00000E+00  9.000E+00
      25     1     1     2     0     0  1.181507451E+02 -8.384059835E+01  2.697391770E+02  3.307159931E+02  1.250000000E+02  0.00000E+00  9.000E+00
      25     1     1     2     0     0 -9.276162517E+01  1.394144311E+01 -3.416950315E+02  3.757387090E+02  1.250000000E+02  0.00000E+00  9.000E+00
       1     1     1     2   501     0 -2.538911990E+01  6.989915524E+01  1.564252942E+03  1.566019720E+03  2.157918644E-05  0.00000E+00  9.000E+00
#rwgt            1           1   7.7601784991136846E-002           8       38074           0
</event>
<event>
      5   9999  3.79277E-02  1.40112E+02 -1.00000E+00  1.17580E-01
      21    -1     0     0   502   501  0.000000000E+00  0.000000000E+00  5.436560770E+01  5.436560770E+01  0.000000000E+00  0.00000E+00  9.000E+00
       2    -1     0     0   501     0  0.000000000E+00  0.000000000E+00 -1.632711180E+03  1.632711180E+03  0.000000000E+00  0.00000E+00  9.000E+00
      25     1     1     2     0     0 -3.382578390E+01 -8.002697107E+01 -4.837501882E+02  5.071368103E+02  1.250000000E+02  0.00000E+00  9.000E+00
      25     1     1     2     0     0 -9.561937363E+00  2.132516722E+02 -3.921197089E+02  4.636276226E+02  1.250000000E+02  0.00000E+00  9.000E+00
       2     1     1     2   502     0  4.338772126E+01 -1.332247012E+02 -7.024756753E+02  7.163123548E+02  1.705984480E-05  0.00000E+00  9.000E+00
#rwgt            1           1   4.0473107164696272E-002           8       38142           0
</event>
<event>
      5   9999  3.79277E-02  4.36176E+01 -1.00000E+00  1.42546E-01
      21    -1     0     0   502   501  0.000000000E+00  0.000000000E+00  1.446365582E+02  1.446365582E+02  0.000000000E+00  0.00000E+00  9.000E+00
       1    -1     0     0   501     0  0.000000000E+00  0.000000000E+00 -1.705668996E+03  1.705668996E+03  0.000000000E+00  0.00000E+00  9.000E+00
      25     1     1     2     0     0  1.965569773E+02  1.216230832E+02 -3.211688320E+01  2.647325327E+02  1.250000000E+02  0.00000E+00  9.000E+00
      25     1     1     2     0     0 -1.665756565E+02 -8.994324307E+01 -4.333226346E+02  4.891121977E+02  1.250000000E+02  0.00000E+00  9.000E+00
       1     1     1     2   502     0 -2.998132081E+01 -3.167984015E+01 -1.095592920E+03  1.096460824E+03  2.642899792E-05  0.00000E+00  9.000E+00
#rwgt            1           1   3.2671040070720005E-002           8       38209           0
</event>
<event>
      5   9999  3.79277E-02  1.96922E+01 -1.00000E+00  1.66927E-01
      21    -1     0     0   502   511  0.000000000E+00  0.000000000E+00  1.597377290E+02  1.597377290E+02  0.000000000E+00  0.00000E+00  9.000E+00
      21    -1     0     0   501   502  0.000000000E+00  0.000000000E+00 -4.717781490E+02  4.717781490E+02  0.000000000E+00  0.00000E+00  9.000E+00
      25     1     1     2     0     0 -7.869150732E+01  5.124496389E+01 -3.569199694E+02  3.896604473E+02  1.250000000E+02  0.00000E+00  9.000E+00
      25     1     1     2     0     0  9.686101320E+01 -5.883772761E+01 -2.380983034E+01  1.703990672E+02  1.250000000E+02  0.00000E+00  9.000E+00
      21     1     1     2   501   511 -1.816950588E+01  7.592763723E+00  6.868937971E+01  7.145636353E+01  0.000000000E+00  0.00000E+00  9.000E+00
#rwgt            1           1   3.7298948779643556E-002           8       38475           0
</event>
<event>
      5   9999  3.79277E-02  1.26561E+02 -1.00000E+00  1.19395E-01
      21    -1     0     0   512   501  0.000000000E+00  0.000000000E+00  1.278223136E+03  1.278223136E+03  0.000000000E+00  0.00000E+00  9.000E+00
      21    -1     0     0   501   502  0.000000000E+00  0.000000000E+00 -1.994364908E+02  1.994364908E+02  0.000000000E+00  0.00000E+00  9.000E+00
      25     1     1     2     0     0  1.113631013E+02  1.270655610E+02 -9.698165944E+01  2.314688735E+02  1.250000000E+02  0.00000E+00  9.000E+00
      25     1     1     2     0     0 -2.263032804E+02 -7.408887745E+01  9.503860284E+02  9.877048848E+02  1.250000000E+02  0.00000E+00  9.000E+00
      21     1     1     2   512   502  1.149401790E+02 -5.297668352E+01  2.253822761E+02  2.584858683E+02  5.394796609E-06  0.00000E+00  9.000E+00
#rwgt            1           1   6.3220807823166289E-002           8       38617           0
</event>
<event>
      5   9999  3.79277E-02  8.26033E+01 -1.00000E+00  1.27680E-01
      21    -1     0     0   502   501  0.000000000E+00  0.000000000E+00  1.353528956E+02  1.353528956E+02  0.000000000E+00  0.00000E+00  9.000E+00
       2    -1     0     0   501     0  0.000000000E+00  0.000000000E+00 -6.883458730E+02  6.883458730E+02  0.000000000E+00  0.00000E+00  9.000E+00
      25     1     1     2     0     0  7.722509476E+00 -1.439357841E+01  5.974506421E+01  1.395037094E+02  1.250000000E+02  0.00000E+00  9.000E+00
      25     1     1     2     0     0 -1.986830002E+01 -6.731188207E+01 -1.271111694E+02  1.915930275E+02  1.250000000E+02  0.00000E+00  9.000E+00
       2     1     1     2   502     0  1.214579054E+01  8.170546047E+01 -4.856268723E+02  4.926020317E+02  9.344061824E-06  0.00000E+00  9.000E+00
#rwgt            1           1   5.0489452400664547E-002           8       38787           0
</event>
<event>
      5   9999  3.79277E-02  2.26232E+01 -1.00000E+00  1.62071E-01
      21    -1     0     0   502   501  0.000000000E+00  0.000000000E+00  6.201323122E+01  6.201323122E+01  0.000000000E+00  0.00000E+00  9.000E+00
      21    -1     0     0   501   511  0.000000000E+00  0.000000000E+00 -5.765031639E+02  5.765031639E+02  0.000000000E+00  0.00000E+00  9.000E+00
      25     1     1     2     0     0 -1.002664673E+02 -1.914581516E+00 -9.863473588E+01  1.881776852E+02  1.250000000E+02  0.00000E+00  9.000E+00
      25     1     1     2     0     0  8.216111561E+01 -1.165034807E+01 -3.543801182E+02  3.848330128E+02  1.250000000E+02  0.00000E+00  9.000E+00
      21     1     1     2   502   511  1.810535166E+01  1.356492958E+01 -6.147507861E+01  6.550569718E+01  6.743495762E-07  0.00000E+00  9.000E+00
#rwgt            1           1   5.0110519647052286E-002           8       38861           0
</event>
<event>
      5   9999  3.79277E-02  3.96505E+01 -1.00000E+00  1.45077E-01
      21    -1     0     0   512   501  0.000000000E+00  0.000000000E+00  4.630615017E+02  4.630615017E+02  0.000000000E+00  0.00000E+00  9.000E+00
      21    -1     0     0   501   502  0.000000000E+00  0.000000000E+00 -1.213741760E+02  1.213741760E+02  0.000000000E+00  0.00000E+00  9.000E+00
      25     1     1     2     0     0 -1.157716261E+02 -2.943056233E+01 -2.163959407E+01  1.742483843E+02  1.250000000E+02  0.00000E+00  9.000E+00
      25     1     1     2     0     0  7.653072887E+01  3.511530716E+01  2.851373933E+02  3.225187906E+02  1.250000000E+02  0.00000E+00  9.000E+00
      21     1     1     2   512   502  3.924089722E+01 -5.684744830E+00  7.818952646E+01  8.766850282E+01  1.348699152E-06  0.00000E+00  9.000E+00
#rwgt            1           1   4.0328619823898459E-002           8       39011           0
</event>
<event>
      5   9999  3.79277E-02  5.05946E+01 -1.00000E+00  1.38783E-01
      21    -1     0     0   511   501  0.000000000E+00  0.000000000E+00  5.307475090E+02  5.307475090E+02  0.000000000E+00  0.00000E+00  9.000E+00
      21    -1     0     0   501   502  0.000000000E+00  0.000000000E+00 -2.521784021E+02  2.521784021E+02  0.000000000E+00  0.00000E+00  9.000E+00
      25     1     1     2     0     0  3.994313426E+01 -1.160486643E+02 -1.319936389E+01  1.756757515E+02  1.250000000E+02  0.00000E+00  9.000E+00
      25     1     1     2     0     0 -8.686128249E+01  9.711458894E+01 -1.039282674E+02  2.083319720E+02  1.250000000E+02  0.00000E+00  9.000E+00
      21     1     1     2   511   502  4.691814823E+01  1.893407532E+01  3.956967382E+02  3.989181877E+02  0.000000000E+00  0.00000E+00  9.000E+00
#rwgt            1           1   4.3613629330556854E-002           8       39412           0
</event>
<event>
      5   9999  3.79277E-02  1.15498E+01 -1.00000E+00  1.88791E-01
      21    -1     0     0   502   512  0.000000000E+00  0.000000000E+00  7.494842268E+01  7.494842268E+01  0.000000000E+00  0.00000E+00  9.000E+00
      21    -1     0     0   501   502  0.000000000E+00  0.000000000E+00 -1.000321318E+03  1.000321318E+03  0.000000000E+00  0.00000E+00  9.000E+00
      25     1     1     2     0     0 -1.439512495E+01 -1.189046217E+02 -7.288560691E+02  7.491339654E+02  1.250000000E+02  0.00000E+00  9.000E+00
      25     1     1     2     0     0  2.591241505E+01  1.197711303E+02 -2.309643394E+02  2.898035593E+02  1.250000000E+02  0.00000E+00  9.000E+00
      21     1     1     2   501   512 -1.151729010E+01 -8.665086529E-01  3.444751278E+01  3.633221635E+01  1.261592536E-06  0.00000E+00  9.000E+00
#rwgt            1           1   4.7098703894245628E-002           8       39510           0
</event>
<event>
      5   9999  3.79277E-02  2.87891E+01 -1.00000E+00  1.54293E-01
      21    -1     0     0   502   511  0.000000000E+00  0.000000000E+00  3.833323125E+02  3.833323125E+02  0.000000000E+00  0.00000E+00  9.000E+00
      21    -1     0     0   501   502  0.000000000E+00  0.000000000E+00 -1.011842895E+02  1.011842895E+02  0.000000000E+00  0.00000E+00  9.000E+00
      25     1     1     2     0     0 -1.028685009E+02 -8.255082972E+01  7.068413031E+01  1.949815741E+02  1.250000000E+02  0.00000E+00  9.000E+00
      25     1     1     2     0     0  7.429281371E+01  8.604946772E+01  1.792831714E+02  2.463562230E+02  1.250000000E+02  0.00000E+00  9.000E+00
      21     1     1     2   501   511  2.857568716E+01 -3.498638004E+00  3.218072138E+01  4.317880491E+01  0.000000000E+00  0.00000E+00  9.000E+00
#rwgt            1           1   3.6748417831605498E-002           8       39800           0
</event>
<event>
      5   9999  3.79277E-02  1.86044E+01 -1.00000E+00  1.69003E-01
      21    -1     0     0   512   501  0.000000000E+00  0.000000000E+00  5.892741534E+01  5.892741534E+01  0.000000000E+00  0.00000E+00  9.000E+00
      21    -1     0     0   501   502  0.000000000E+00  0.000000000E+00 -6.572570796E+02  6.572570796E+02  0.000000000E+00  0.00000E+00  9.000E+00
      25     1     1     2     0     0 -1.393514898E+02 -3.143932443E+01 -2.553612167E+02  3.181848831E+02  1.250000000E+02  0.00000E+00  9.000E+00
      25     1     1     2     0     0  1.213438768E+02  2.676507286E+01 -3.332976065E+02  3.770318289E+02  1.250000000E+02  0.00000E+00  9.000E+00
      21     1     1     2   512   502  1.800761298E+01  4.674251567E+00 -9.670841050E+00  2.096778289E+01  2.920019320E-07  0.00000E+00  9.000E+00
#rwgt            1           1   3.7360971856922810E-002           8       39946           0
</event>
<event>
      5   9999  3.79277E-02  1.51956E+01 -1.00000E+00  1.76855E-01
      21    -1     0     0   511   501  0.000000000E+00  0.000000000E+00  3.195454294E+01  3.195454294E+01  0.000000000E+00  0.00000E+00  9.000E+00
      21    -1     0     0   501   502  0.000000000E+00  0.000000000E+00 -1.628120047E+03  1.628120047E+03  0.000000000E+00  0.00000E+00  9.000E+00
      25     1     1     2     0     0  7.260171920E+01  1.308669050E+02 -6.986831879E+02  7.253829013E+02  1.250000000E+02  0.00000E+00  9.000E+00
      25     1     1     2     0     0 -8.200495184E+01 -1.428035865E+02 -8.958640755E+02  9.194102013E+02  1.250000000E+02  0.00000E+00  9.000E+00
      21     1     1     2   511   502  9.403232642E+00  1.193668153E+01 -1.618240542E+00  1.528148725E+01  6.857772767E-07  0.00000E+00  9.000E+00
#rwgt            1           1   6.0201879249820754E-002           8       40196           0
</event>
<event>
      5   9999  3.79277E-02  1.76921E+02 -1.00000E+00  1.13622E-01
      21    -1     0     0   502   512  0.000000000E+00  0.000000000E+00  6.735332803E+02  6.735332803E+02  0.000000000E+00  0.00000E+00  9.000E+00
      21    -1     0     0   501   502  0.000000000E+00  0.000000000E+00 -3.133541034E+02  3.133541034E+02  0.000000000E+00  0.00000E+00  9.000E+00
      25     1     1     2     0     0  4.940987190E+01  5.575532606E+01 -1.955239941E+02  2.437306384E+02  1.250000000E+02  0.00000E+00  9.000E+00
      25     1     1     2     0     0 -2.220885351E+02 -1.724392171E+01  1.397989938E+02  2.911862444E+02  1.250000000E+02  0.00000E+00  9.000E+00
      21     1     1     2   501   512  1.726786632E+02 -3.851140435E+01  4.159041773E+02  4.519705009E+02  5.394796609E-06  0.00000E+00  9.000E+00
#rwgt            2          11   1.5035292698885097E-003           8       40926           0
</event>
<event>
      5   9999  3.79277E-02  1.00381E+02 -1.00000E+00  1.23754E-01
      21    -1     0     0   502   501  0.000000000E+00  0.000000000E+00  1.197768543E+02  1.197768543E+02  0.000000000E+00  0.00000E+00  9.000E+00
       2    -1     0     0   501     0  0.000000000E+00  0.000000000E+00 -6.115027385E+02  6.115027385E+02  0.000000000E+00  0.00000E+00  9.000E+00
      25     1     1     2     0     0 -1.401872446E+02  8.351261020E+01 -2.170741349E+02  2.989531730E+02  1.250000000E+02  0.00000E+00  9.000E+00
      25     1     1     2     0     0  8.150728254E+01 -1.649553973E+02 -2.372157497E+02  3.251923002E+02  1.250000000E+02  0.00000E+00  9.000E+00
       2     1     1     2   502     0  5.867996201E+01  8.144278713E+01 -3.743599972E+01  1.071341196E+02  1.907348633E-06  0.00000E+00  9.000E+00
#rwgt            1           1   3.2975417992184279E-002           8       40961           0
</event>
<event>
      5   9999  3.79277E-02  3.31180E+01 -1.00000E+00  1.50116E-01
      21    -1     0     0   511   501  0.000000000E+00  0.000000000E+00  4.520406124E+02  4.520406124E+02  0.000000000E+00  0.00000E+00  9.000E+00
      21    -1     0     0   501   502  0.000000000E+00  0.000000000E+00 -1.590988749E+02  1.590988749E+02  0.000000000E+00  0.00000E+00  9.000E+00
      25     1     1     2     0     0  2.099979293E+02 -5.592138823E+01  9.753281577E+01  2.690055429E+02  1.250000000E+02  0.00000E+00  9.000E+00
      25     1     1     2     0     0 -1.776286942E+02  6.292364671E+01  1.119154366E+02  2.523121148E+02  1.250000000E+02  0.00000E+00  9.000E+00
      21     1     1     2   511   502 -3.236923511E+01 -7.002258486E+00  8.349348513E+01  8.982182955E+01  9.536743164E-07  0.00000E+00  9.000E+00
#rwgt            1           1   3.0082041720527739E-002           8       41010           0
</event>
<event>
      5   9999  3.79277E-02  3.51981E+01 -1.00000E+00  1.48371E-01
      21    -1     0     0   502   512  0.000000000E+00  0.000000000E+00  8.492676075E+02  8.492676075E+02  0.000000000E+00  0.00000E+00  9.000E+00
      21    -1     0     0   501   502  0.000000000E+00  0.000000000E+00 -7.497416329E+01  7.497416329E+01  0.000000000E+00  0.00000E+00  9.000E+00
      25     1     1     2     0     0  1.161812138E+02  1.294142886E+02  2.909541792E+02  3.612830842E+02  1.250000000E+02  0.00000E+00  9.000E+00
      25     1     1     2     0     0 -8.975410657E+01 -1.526631953E+02  2.676553041E+02  3.444215624E+02  1.250000000E+02  0.00000E+00  9.000E+00
      21     1     1     2   501   512 -2.642710721E+01  2.324890676E+01  2.156839609E+02  2.185371242E+02  0.000000000E+00  0.00000E+00  9.000E+00
#rwgt            1           1   3.5350834368941382E-002           8       41342           0
</event>
<event>
      5   9999 -3.79277E-02  2.03783E+02 -1.00000E+00  1.11353E-01
      21    -1     0     0   502   501  0.000000000E+00  0.000000000E+00  1.872925334E+03  1.872925334E+03  0.000000000E+00  0.00000E+00  9.000E+00
      21    -1     0     0   501   511  0.000000000E+00  0.000000000E+00 -2.955410069E+02  2.955410069E+02  0.000000000E+00  0.00000E+00  9.000E+00
      25     1     1     2     0     0 -2.661151479E+02  7.199498099E+01  1.115138941E+03  1.155491414E+03  1.250000000E+02  0.00000E+00  9.000E+00
      25     1     1     2     0     0  7.825334794E+01 -1.509594703E+02  6.816269206E+02  7.135493025E+02  1.250000000E+02  0.00000E+00  9.000E+00
      21     1     1     2   502   511  1.878618000E+02  7.896448931E+01 -2.193815351E+02  2.994256242E+02  3.814697266E-06  0.00000E+00  9.000E+00
#rwgt            1           1 -0.20274908914033085                8       41482           0
</event>
<event>
      5   9999 -3.79277E-02  1.01766E+02 -1.00000E+00  1.23487E-01
       2    -1     0     0   502     0  0.000000000E+00  0.000000000E+00  7.884949718E+02  7.884949718E+02  0.000000000E+00  0.00000E+00  9.000E+00
      21    -1     0     0   501   502  0.000000000E+00  0.000000000E+00 -1.758140802E+02  1.758140802E+02  0.000000000E+00  0.00000E+00  9.000E+00
      25     1     1     2     0     0 -1.416143032E+02 -4.621762302E+01  6.173975984E+01  2.040281292E+02  1.250000000E+02  0.00000E+00  9.000E+00
      25     1     1     2     0     0  4.151424340E+01  6.455868396E+01 -4.677640660E+01  1.539619703E+02  1.250000000E+02  0.00000E+00  9.000E+00
       2     1     1     2   501     0  1.001000598E+02 -1.834106095E+01  5.977175384E+02  6.063189525E+02  0.000000000E+00  0.00000E+00  9.000E+00
#rwgt            1           1  -1.5260921460439539E-002           8       41860           0
</event>
<event>
      5   9999  3.79277E-02  4.21318E+01 -1.00000E+00  1.43455E-01
      21    -1     0     0   502   511  0.000000000E+00  0.000000000E+00  1.489043490E+03  1.489043490E+03  0.000000000E+00  0.00000E+00  9.000E+00
      21    -1     0     0   501   502  0.000000000E+00  0.000000000E+00 -4.950325356E+01  4.950325356E+01  0.000000000E+00  0.00000E+00  9.000E+00
      25     1     1     2     0     0  4.761078127E+01 -4.936998787E+01  4.278096052E+02  4.509437220E+02  1.250000000E+02  0.00000E+00  9.000E+00
      25     1     1     2     0     0 -3.425871416E+01  8.933010100E+01  1.280458164E+02  2.029144094E+02  1.250000000E+02  0.00000E+00  9.000E+00
      21     1     1     2   501   511 -1.335206711E+01 -3.996011312E+01  8.836848154E+02  8.846886126E+02  1.078959322E-05  0.00000E+00  9.000E+00
#rwgt            1           1   4.0993422781354989E-002           8       41997           0
</event>
<event>
      5   9999  3.79277E-02  4.73855E+01 -1.00000E+00  1.40420E-01
      -3    -1     0     0     0   501  0.000000000E+00  0.000000000E+00  6.244244635E+02  6.244244635E+02  0.000000000E+00  0.00000E+00  9.000E+00
      21    -1     0     0   501   502  0.000000000E+00  0.000000000E+00 -2.160208920E+02  2.160208920E+02  0.000000000E+00  0.00000E+00  9.000E+00
      25     1     1     2     0     0 -1.307969946E+02 -3.780776578E+00 -1.400465231E+02  2.288234618E+02  1.250000000E+02  0.00000E+00  9.000E+00
      25     1     1     2     0     0  1.659642532E+02  3.553999209E+01  3.587535638E+02  4.160965560E+02  1.250000000E+02  0.00000E+00  9.000E+00
      -3     1     1     2     0   502 -3.516725865E+01 -3.175921552E+01  1.896965309E+02  1.955253377E+02  3.814697266E-06  0.00000E+00  9.000E+00
#rwgt            1           1   3.7011879175518889E-002           8       42151           0
</event>
<event>
      5   9999  3.79277E-02  3.03265E+01 -1.00000E+00  1.52714E-01
      21    -1     0     0   511   501  0.000000000E+00  0.000000000E+00  3.385657272E+02  3.385657272E+02  0.000000000E+00  0.00000E+00  9.000E+00
      21    -1     0     0   501   502  0.000000000E+00  0.000000000E+00 -3.326667175E+02  3.326667175E+02  0.000000000E+00  0.00000E+00  9.000E+00
      25     1     1     2     0     0  8.403246008E+01  2.560298113E+02 -3.102455616E+01  2.986640951E+02  1.250000000E+02  0.00000E+00  9.000E+00
      25     1     1     2     0     0 -5.891984240E+01 -2.730313378E+02 -2.147652700E+01  3.067635905E+02  1.250000000E+02  0.00000E+00  9.000E+00
      21     1     1     2   511   502 -2.511261768E+01  1.700152648E+01  5.840009294E+01  6.580475913E+01  6.743495762E-07  0.00000E+00  9.000E+00
#rwgt            1           1   4.0633357167570175E-002           8       42411           0
</event>
<event>
      5   9999  3.79277E-02  1.43646E+02 -1.00000E+00  1.17143E-01
      21    -1     0     0   502   501  0.000000000E+00  0.000000000E+00  1.121562767E+03  1.121562767E+03  0.000000000E+00  0.00000E+00  9.000E+00
      21    -1     0     0   512   502  0.000000000E+00  0.000000000E+00 -1.516739593E+02  1.516739593E+02  0.000000000E+00  0.00000E+00  9.000E+00
      25     1     1     2     0     0 -5.575629706E+01  5.317478990E+01  1.903457196E+02  2.404013642E+02  1.250000000E+02  0.00000E+00  9.000E+00
      25     1     1     2     0     0  1.386494924E+02 -1.704901529E+02  8.398252941E+02  8.770530763E+02  1.250000000E+02  0.00000E+00  9.000E+00
      21     1     1     2   512   501 -8.289319531E+01  1.173153630E+02 -6.028220595E+01  1.557822858E+02  2.780414531E-06  0.00000E+00  9.000E+00
#rwgt            1           1   5.3769492778833278E-002           8       42692           0
</event>
<event>
      5   9999  3.79277E-02  6.84290E+01 -1.00000E+00  1.31722E-01
      21    -1     0     0   511   501  0.000000000E+00  0.000000000E+00  4.323733895E+01  4.323733895E+01  0.000000000E+00  0.00000E+00  9.000E+00
      21    -1     0     0   501   502  0.000000000E+00  0.000000000E+00 -8.440864151E+02  8.440864151E+02  0.000000000E+00  0.00000E+00  9.000E+00
      25     1     1     2     0     0 -9.074655798E+01  2.420436773E+01 -2.903337987E+02  3.297567344E+02  1.250000000E+02  0.00000E+00  9.000E+00
      25     1     1     2     0     0  4.848264698E+01 -7.802154344E+01 -3.728838803E+02  4.038629922E+02  1.250000000E+02  0.00000E+00  9.000E+00
      21     1     1     2   511   502  4.226391100E+01  5.381717571E+01 -1.376313971E+02  1.537040274E+02  0.000000000E+00  0.00000E+00  9.000E+00
#rwgt            1           1   3.7086838394051240E-002           8       42832           0
</event>
<event>
      5   9999  3.79277E-02  8.12782E+01 -1.00000E+00  1.28017E-01
      21    -1     0     0   502   501  0.000000000E+00  0.000000000E+00  3.687103460E+02  3.687103460E+02  0.000000000E+00  0.00000E+00  9.000E+00
       2    -1     0     0   501     0  0.000000000E+00  0.000000000E+00 -2.660016370E+03  2.660016370E+03  0.000000000E+00  0.00000E+00  9.000E+00
      25     1     1     2     0     0 -1.920597754E+02  1.138942029E+02  2.372568821E+02  3.489622829E+02  1.250000000E+02  0.00000E+00  9.000E+00
      25     1     1     2     0     0  1.168192014E+02 -1.446351334E+02 -9.255248523E+01  2.423984533E+02  1.250000000E+02  0.00000E+00  9.000E+00
       2     1     1     2   502     0  7.524057401E+01  3.074093050E+01 -2.436010421E+03  2.437365980E+03  3.051757812E-05  0.00000E+00  9.000E+00
#rwgt            1           1   2.9309965774347184E-002           8       42895           0
</event>
<event>
      5   9999  3.79277E-02  3.18507E+01 -1.00000E+00  1.51256E-01
      21    -1     0     0   502   501  0.000000000E+00  0.000000000E+00  2.350271002E+02  2.350271002E+02  0.000000000E+00  0.00000E+00  9.000E+00
      21    -1     0     0   501   511  0.000000000E+00  0.000000000E+00 -1.067468489E+03  1.067468489E+03  0.000000000E+00  0.00000E+00  9.000E+00
      25     1     1     2     0     0 -2.398977750E+02  2.355382377E+02 -1.748425542E+02  3.990289747E+02  1.250000000E+02  0.00000E+00  9.000E+00
      25     1     1     2     0     0  2.353609912E+02 -2.670641908E+02 -1.682789645E+02  4.131112297E+02  1.250000000E+02  0.00000E+00  9.000E+00
      21     1     1     2   502   511  4.536783796E+00  3.152595306E+01 -4.893198699E+02  4.903553846E+02  7.629394531E-06  0.00000E+00  9.000E+00
#rwgt            1           1   4.3456043791254326E-002           8       42975           0
</event>
<event>
      5   9999  3.79277E-02  1.16230E+02 -1.00000E+00  1.20960E-01
      21    -1     0     0   502   512  0.000000000E+00  0.000000000E+00  2.169327482E+03  2.169327482E+03  0.000000000E+00  0.00000E+00  9.000E+00
      21    -1     0     0   501   502  0.000000000E+00  0.000000000E+00 -5.336222646E+01  5.336222646E+01  0.000000000E+00  0.00000E+00  9.000E+00
      25     1     1     2     0     0  1.777929954E+02 -4.055680889E+01  4.716326649E+02  5.208815360E+02  1.250000000E+02  0.00000E+00  9.000E+00
      25     1     1     2     0     0 -2.793222760E+02  9.713598283E+01  1.148273679E+03  1.192314461E+03  1.250000000E+02  0.00000E+00  9.000E+00
      21     1     1     2   501   512  1.015292806E+02 -5.657917394E+01  4.960589118E+02  5.094937111E+02  5.394796609E-06  0.00000E+00  9.000E+00
#rwgt            1           1   5.0788483554923242E-002           8       43176           0
</event>
<event>
      5   9999  3.79277E-02  4.53749E+01 -1.00000E+00  1.41524E-01
      21    -1     0     0   511   501  0.000000000E+00  0.000000000E+00  4.881812844E+01  4.881812844E+01  0.000000000E+00  0.00000E+00  9.000E+00
      21    -1     0     0   501   502  0.000000000E+00  0.000000000E+00 -1.578863312E+03  1.578863312E+03  0.000000000E+00  0.00000E+00  9.000E+00
      25     1     1     2     0     0  2.320777055E+01  1.083102152E+02 -6.965920273E+02  7.163345279E+02  1.250000000E+02  0.00000E+00  9.000E+00
      25     1     1     2     0     0 -6.101539802E+01 -8.322108880E+01 -8.482671881E+02  8.636149900E+02  1.250000000E+02  0.00000E+00  9.000E+00
      21     1     1     2   511   502  3.780762747E+01 -2.508912635E+01  1.481403139E+01  4.773192309E+01  2.293036468E-06  0.00000E+00  9.000E+00
#rwgt            1           1   3.6446517196690426E-002           8       43399           0
</event>
<event>
      5   9999  3.79277E-02  1.72019E+01 -1.00000E+00  1.71957E-01
      21    -1     0     0   502   501  0.000000000E+00  0.000000000E+00  1.094270361E+03  1.094270361E+03  0.000000000E+00  0.00000E+00  9.000E+00
      21    -1     0     0   512   502  0.000000000E+00  0.000000000E+00 -8.250503842E+01  8.250503842E+01  0.000000000E+00  0.00000E+00  9.000E+00
      25     1     1     2     0     0 -2.392375358E+02 -2.786633385E+01  5.339021817E+02  5.989053938E+02  1.250000000E+02  0.00000E+00  9.000E+00
      25     1     1     2     0     0  2.268612164E+02  3.981332226E+01  4.907760915E+02  5.563607500E+02  1.250000000E+02  0.00000E+00  9.000E+00
      21     1     1     2   512   501  1.237631940E+01 -1.194698841E+01 -1.291295016E+01  2.150925605E+01  4.460403188E-07  0.00000E+00  9.000E+00
#rwgt            1           1   2.2297652363225763E-002           8       43606           0
</event>
<event>
      5   9999  3.79277E-02  3.30159E+01 -1.00000E+00  1.50205E-01
      21    -1     0     0   502   501  0.000000000E+00  0.000000000E+00  1.687693588E+02  1.687693588E+02  0.000000000E+00  0.00000E+00  9.000E+00
      21    -1     0     0   501   511  0.000000000E+00  0.000000000E+00 -3.856787053E+02  3.856787053E+02  0.000000000E+00  0.00000E+00  9.000E+00
      25     1     1     2     0     0  9.302743091E+01 -1.223054824E+01 -1.717854803E+02  2.322475844E+02  1.250000000E+02  0.00000E+00  9.000E+00
      25     1     1     2     0     0 -6.582291578E+01  3.093782953E+01  9.840461422E+01  1.749236223E+02  1.250000000E+02  0.00000E+00  9.000E+00
      21     1     1     2   502   511 -2.720451513E+01 -1.870728130E+01 -1.435284804E+02  1.472768573E+02  2.697398305E-06  0.00000E+00  9.000E+00
#rwgt            1           1   3.8972948944353852E-002           8       43890           0
</event>
<event>
      5   9999  3.79277E-02  9.81494E+00 -1.00000E+00  1.96700E-01
      21    -1     0     0   502   501  0.000000000E+00  0.000000000E+00  2.893021051E+02  2.893021051E+02  0.000000000E+00  0.00000E+00  9.000E+00
      21    -1     0     0   512   502  0.000000000E+00  0.000000000E+00 -1.690391561E+02  1.690391561E+02  0.000000000E+00  0.00000E+00  9.000E+00
      25     1     1     2     0     0 -1.306834995E+02  1.103855583E+02  1.037259084E+02  2.358966142E+02  1.250000000E+02  0.00000E+00  9.000E+00
      25     1     1     2     0     0  1.213616764E+02 -1.073136483E+02  2.890785994E+01  2.066531877E+02  1.250000000E+02  0.00000E+00  9.000E+00
      21     1     1     2   512   501  9.321823091E+00 -3.071909974E+00 -1.237081932E+01  1.579145931E+01  2.384185791E-07  0.00000E+00  9.000E+00
#rwgt            1           1   3.9305830770011617E-002           8       44007           0
</event>
<event>
      5   9999  3.79277E-02  5.54566E+01 -1.00000E+00  1.36557E-01
       2    -1     0     0   502     0  0.000000000E+00  0.000000000E+00  2.370069580E+03  2.370069580E+03  0.000000000E+00  0.00000E+00  9.000E+00
      21    -1     0     0   501   502  0.000000000E+00  0.000000000E+00 -3.473964614E+01  3.473964614E+01  0.000000000E+00  0.00000E+00  9.000E+00
      25     1     1     2     0     0 -1.290213094E+02 -6.278761791E+01  5.866354750E+02  6.167292467E+02  1.250000000E+02  0.00000E+00  9.000E+00
      25     1     1     2     0     0  1.722647005E+02  2.806811929E+01  5.863803134E+02  6.244436070E+02  1.250000000E+02  0.00000E+00  9.000E+00
       2     1     1     2   501     0 -4.324339111E+01  3.471949862E+01  1.162314145E+03  1.163636372E+03  2.157918644E-05  0.00000E+00  9.000E+00
#rwgt            1           1   4.3459207183503941E-002           8       44265           0
</event>
<event>
      5   9999  3.79277E-02  4.61776E+01 -1.00000E+00  1.41075E-01
      21    -1     0     0   511   501  0.000000000E+00  0.000000000E+00  9.817344328E+01  9.817344328E+01  0.000000000E+00  0.00000E+00  9.000E+00
      21    -1     0     0   501   502  0.000000000E+00  0.000000000E+00 -5.932217718E+02  5.932217718E+02  0.000000000E+00  0.00000E+00  9.000E+00
      25     1     1     2     0     0  2.975290441E+01  1.338326963E+02 -9.193923789E+01  2.070609799E+02  1.250000000E+02  0.00000E+00  9.000E+00
      25     1     1     2     0     0 -7.095004857E+01 -1.546933331E+02 -3.747404588E+02  4.301387546E+02  1.250000000E+02  0.00000E+00  9.000E+00
      21     1     1     2   511   502  4.119714416E+01  2.086063677E+01 -2.836863184E+01  5.419548068E+01  8.920806376E-07  0.00000E+00  9.000E+00
#rwgt            1           1   3.1881741228978848E-002           8       44416           0
</event>
<event>
      5   9999  3.79277E-02  1.08395E+02 -1.00000E+00  1.22274E-01
      21    -1     0     0   512   501  0.000000000E+00  0.000000000E+00  2.464442426E+02  2.464442426E+02  0.000000000E+00  0.00000E+00  9.000E+00
      21    -1     0     0   501   502  0.000000000E+00  0.000000000E+00 -3.042000943E+02  3.042000943E+02  0.000000000E+00  0.00000E+00  9.000E+00
      25     1     1     2     0     0  1.027447050E+02  4.851239056E+01 -1.554772682E+02  2.295824631E+02  1.250000000E+02  0.00000E+00  9.000E+00
      25     1     1     2     0     0 -1.386252975E+02  5.377148304E+01  4.026192861E+01  1.983793548E+02  1.250000000E+02  0.00000E+00  9.000E+00
      21     1     1     2   512   502  3.588059257E+01 -1.022838736E+02  5.745948789E+01  1.226825190E+02  2.431401974E-06  0.00000E+00  9.000E+00
#rwgt            2          11   1.9541648927091280E-003           8       44530           0
</event>
<event>
      5   9999  3.79277E-02  9.26584E+01 -1.00000E+00  1.25336E-01
       1    -1     0     0   502     0  0.000000000E+00  0.000000000E+00  6.005743877E+02  6.005743877E+02  0.000000000E+00  0.00000E+00  9.000E+00
      21    -1     0     0   501   502  0.000000000E+00  0.000000000E+00 -6.018705497E+02  6.018705497E+02  0.000000000E+00  0.00000E+00  9.000E+00
      25     1     1     2     0     0  2.164022562E+02  3.800334855E+01 -3.507584041E+02  4.323547722E+02  1.250000000E+02  0.00000E+00  9.000E+00
      25     1     1     2     0     0 -2.649212500E+02 -1.169430967E+02 -8.434833757E+01  3.264944082E+02  1.250000000E+02  0.00000E+00  9.000E+00
       1     1     1     2   501     0  4.851899377E+01  7.893974811E+01  4.338105797E+02  4.435957570E+02  5.394796609E-06  0.00000E+00  9.000E+00
#rwgt            1           1   3.0806411435915931E-002           8       44550           0
</event>
<event>
      5   9999  3.79277E-02  3.22360E+01 -1.00000E+00  1.50903E-01
      21    -1     0     0   511   501  0.000000000E+00  0.000000000E+00  1.099361200E+02  1.099361200E+02  0.000000000E+00  0.00000E+00  9.000E+00
      21    -1     0     0   501   502  0.000000000E+00  0.000000000E+00 -8.699496724E+02  8.699496724E+02  0.000000000E+00  0.00000E+00  9.000E+00
      25     1     1     2     0     0 -2.270990391E+02 -5.452453685E+01 -1.940831057E+02  3.283902413E+02  1.250000000E+02  0.00000E+00  9.000E+00
      25     1     1     2     0     0  2.243089583E+02  8.663955586E+01 -5.546922125E+02  6.173567623E+02  1.250000000E+02  0.00000E+00  9.000E+00
      21     1     1     2   511   502  2.790080803E+00 -3.211501901E+01 -1.123823421E+01  3.413878886E+01  6.951036328E-07  0.00000E+00  9.000E+00
#rwgt            1           1   5.2583265021937171E-002           8       44699           0
</event>
<event>
      5   9999  3.79277E-02  5.38135E+01 -1.00000E+00  1.37278E-01
      21    -1     0     0   502   512  0.000000000E+00  0.000000000E+00  1.785656213E+02  1.785656213E+02  0.000000000E+00  0.00000E+00  9.000E+00
      21    -1     0     0   501   502  0.000000000E+00  0.000000000E+00 -4.516079167E+02  4.516079167E+02  0.000000000E+00  0.00000E+00  9.000E+00
      25     1     1     2     0     0 -1.450250675E+02  9.414421269E+01 -1.437560599E+02  2.572668027E+02  1.250000000E+02  0.00000E+00  9.000E+00
      25     1     1     2     0     0  1.279367654E+02 -1.451725000E+02 -1.849954789E+02  2.954508384E+02  1.250000000E+02  0.00000E+00  9.000E+00
      21     1     1     2   501   512  1.708830213E+01  5.102828734E+01  5.570924332E+01  7.745589693E+01  9.536743164E-07  0.00000E+00  9.000E+00
#rwgt            1           1   4.2633327286872344E-002           8       44845           0
</event>
<event>
      5   9999 -3.79277E-02  2.34448E+01 -1.00000E+00  1.60869E-01
      21    -1     0     0   511   501  0.000000000E+00  0.000000000E+00  1.062405442E+03  1.062405442E+03  0.000000000E+00  0.00000E+00  9.000E+00
      21    -1     0     0   501   502  0.000000000E+00  0.000000000E+00 -7.938242707E+01  7.938242707E+01  0.000000000E+00  0.00000E+00  9.000E+00
      25     1     1     2     0     0  9.611940570E+01  1.657146826E+02  4.161173984E+02  4.748462756E+02  1.250000000E+02  0.00000E+00  9.000E+00
      25     1     1     2     0     0 -1.193662427E+02 -1.687549139E+02  2.445642048E+02  3.437487035E+02  1.250000000E+02  0.00000E+00  9.000E+00
      21     1     1     2   511   502  2.324683705E+01  3.040231377E+00  3.223414122E+02  3.231928905E+02  3.814697266E-06  0.00000E+00  9.000E+00
#rwgt            1           1 -0.41599250699021167                8       45175           0
</event>
<event>
      5   9999  3.79277E-02  1.89244E+02 -1.00000E+00  1.12529E-01
      21    -1     0     0   502   501  0.000000000E+00  0.000000000E+00  1.184614047E+03  1.184614047E+03  0.000000000E+00  0.00000E+00  9.000E+00
      21    -1     0     0   501   512  0.000000000E+00  0.000000000E+00 -1.392784280E+02  1.392784280E+02  0.000000000E+00  0.00000E+00  9.000E+00
      25     1     1     2     0     0 -2.576754345E+02 -1.251781739E+02  5.503975947E+02  6.329523813E+02  1.250000000E+02  0.00000E+00  9.000E+00
      25     1     1     2     0     0  1.033003894E+02  1.571808174E+01  4.731891256E+02  5.004507739E+02  1.250000000E+02  0.00000E+00  9.000E+00
      21     1     1     2   502   512  1.543750452E+02  1.094600921E+02  2.174889865E+01  1.904893197E+02  3.135906801E-06  0.00000E+00  9.000E+00
#rwgt            2          11   2.0167682076560559E-003           8       45406           0
</event>
<event>
      5   9999  3.79277E-02  8.40859E+01 -1.00000E+00  1.27311E-01
      21    -1     0     0   502   501  0.000000000E+00  0.000000000E+00  2.028754048E+02  2.028754048E+02  0.000000000E+00  0.00000E+00  9.000E+00
      21    -1     0     0   511   502  0.000000000E+00  0.000000000E+00 -2.228942439E+02  2.228942439E+02  0.000000000E+00  0.00000E+00  9.000E+00
      25     1     1     2     0     0 -3.648744192E+01 -2.764624177E+01 -5.660934759E+01  1.446556820E+02  1.250000000E+02  0.00000E+00  9.000E+00
      25     1     1     2     0     0  6.798712695E+01  1.056090913E+02  7.014503662E+01  1.905803132E+02  1.250000000E+02  0.00000E+00  9.000E+00
      21     1     1     2   511   501 -3.149968503E+01 -7.796284955E+01 -3.355452814E+01  9.053365355E+01  0.000000000E+00  0.00000E+00  9.000E+00
#rwgt            1           1   4.2352076867052023E-002           8       45426           0
</event>
<event>
      5   9999  3.79277E-02  7.65624E+01 -1.00000E+00  1.29280E-01
       1    -1     0     0   502     0  0.000000000E+00  0.000000000E+00  2.251371162E+03  2.251371162E+03  0.000000000E+00  0.00000E+00  9.000E+00
      21    -1     0     0   501   502  0.000000000E+00  0.000000000E+00 -1.360135933E+02  1.360135933E+02  0.000000000E+00  0.00000E+00  9.000E+00
      25     1     1     2     0     0  1.845498858E+02 -9.997765038E+01  1.258546883E+02  2.748064656E+02  1.250000000E+02  0.00000E+00  9.000E+00
      25     1     1     2     0     0 -2.090324981E+02  2.743523715E+01  1.865865310E+02  3.080370287E+02  1.250000000E+02  0.00000E+00  9.000E+00
       1     1     1     2   501     0  2.448261228E+01  7.254241323E+01  1.802916349E+03  1.804541261E+03  2.157918644E-05  0.00000E+00  9.000E+00
#rwgt            1           1   2.5854046223552019E-002           8       45483           0
</event>
<event>
      5   9999  3.79277E-02  2.02992E+01 -1.00000E+00  1.65839E-01
      21    -1     0     0   502   501  0.000000000E+00  0.000000000E+00  2.374272080E+02  2.374272080E+02  0.000000000E+00  0.00000E+00  9.000E+00
      21    -1     0     0   511   502  0.000000000E+00  0.000000000E+00 -2.664787575E+02  2.664787575E+02  0.000000000E+00  0.00000E+00  9.000E+00
      25     1     1     2     0     0 -6.950352106E+01  4.361156849E+01  1.833116684E+02  2.365605126E+02  1.250000000E+02  0.00000E+00  9.000E+00
      25     1     1     2     0     0  6.232434433E+01 -2.462425760E+01 -1.906735069E+02  2.376385158E+02  1.250000000E+02  0.00000E+00  9.000E+00
      21     1     1     2   511   501  7.179176729E+00 -1.898731090E+01 -2.168971095E+01  2.970693715E+01  6.307962682E-07  0.00000E+00  9.000E+00
#rwgt            1           1   4.3165404451259222E-002           8       45566           0
</event>
<event>
      5   9999  3.79277E-02  2.40229E+01 -1.00000E+00  1.60059E-01
      21    -1     0     0   512   501  0.000000000E+00  0.000000000E+00  4.287396917E+02  4.287396917E+02  0.000000000E+00  0.00000E+00  9.000E+00
      21    -1     0     0   501   502  0.000000000E+00  0.000000000E+00 -5.502517601E+02  5.502517601E+02  0.000000000E+00  0.00000E+00  9.000E+00
      25     1     1     2     0     0  4.116660461E+02  2.759725043E+01 -1.767976758E+02  4.659538174E+02  1.250000000E+02  0.00000E+00  9.000E+00
      25     1     1     2     0     0 -4.323392673E+02 -1.536123994E+01 -2.652270534E+00  4.503168266E+02  1.250000000E+02  0.00000E+00  9.000E+00
      21     1     1     2   512   502  2.067322120E+01 -1.223601049E+01  5.793787799E+01  6.272080782E+01  1.348699152E-06  0.00000E+00  9.000E+00
#rwgt            1           1  0.18218058674531240                8       45842           0
</event>
<event>
      5   9999  3.79277E-02  2.42778E+01 -1.00000E+00  1.59710E-01
      21    -1     0     0   502   501  0.000000000E+00  0.000000000E+00  3.832577862E+02  3.832577862E+02  0.000000000E+00  0.00000E+00  9.000E+00
       2    -1     0     0   501     0  0.000000000E+00  0.000000000E+00 -1.459773800E+03  1.459773800E+03  0.000000000E+00  0.00000E+00  9.000E+00
      25     1     1     2     0     0  9.395285976E+01 -8.310240906E+01 -6.708611331E+01  1.893639270E+02  1.250000000E+02  0.00000E+00  9.000E+00
      25     1     1     2     0     0 -7.734962433E+01  6.538957063E+01  3.019108405E+02  3.421022010E+02  1.250000000E+02  0.00000E+00  9.000E+00
       2     1     1     2   502     0 -1.660323544E+01  1.771283844E+01 -1.311340741E+03  1.311565458E+03  2.157918644E-05  0.00000E+00  9.000E+00
#rwgt            1           1   4.0640960740983029E-002           8       46133           0
</event>
<event>
      5   9999  3.79277E-02  6.59712E+01 -1.00000E+00  1.32538E-01
       1    -1     0     0   502     0  0.000000000E+00  0.000000000E+00  5.147624319E+02  5.147624319E+02  0.000000000E+00  0.00000E+00  9.000E+00
      21    -1     0     0   501   502  0.000000000E+00  0.000000000E+00 -1.092381678E+02  1.092381678E+02  0.000000000E+00  0.00000E+00  9.000E+00
      25     1     1     2     0     0  5.635167356E+01 -7.233186958E+01  8.201041740E+01  1.753799277E+02  1.250000000E+02  0.00000E+00  9.000E+00
      25     1     1     2     0     0 -1.210665087E+02  8.514554077E+01  1.049810502E+02  2.203471887E+02  1.250000000E+02  0.00000E+00  9.000E+00
       1     1     1     2   501     0  6.471483516E+01 -1.281367120E+01  2.185327964E+02  2.282734833E+02  0.000000000E+00  0.00000E+00  9.000E+00
#rwgt            1           1   4.6936335706840561E-002           8       46331           0
</event>
<event>
      5   9999  3.79277E-02  1.86775E+01 -1.00000E+00  1.68858E-01
      21    -1     0     0   502   501  0.000000000E+00  0.000000000E+00  5.907663278E+01  5.907663278E+01  0.000000000E+00  0.00000E+00  9.000E+00
      21    -1     0     0   511   502  0.000000000E+00  0.000000000E+00 -1.041104286E+03  1.041104286E+03  0.000000000E+00  0.00000E+00  9.000E+00
      25     1     1     2     0     0  1.006449175E+02 -3.171224700E+01 -8.330691128E+01  1.835758903E+02  1.250000000E+02  0.00000E+00  9.000E+00
      25     1     1     2     0     0 -9.043511027E+01  4.735220292E+01 -8.151685773E+02  8.309907038E+02  1.250000000E+02  0.00000E+00  9.000E+00
      21     1     1     2   511   501 -1.020980724E+01 -1.563995592E+01 -8.355216504E+01  8.561432513E+01  1.348699152E-06  0.00000E+00  9.000E+00
#rwgt            1           1   2.8722046756317524E-002           8       46383           0
</event>
<event>
      5   9999  3.79277E-02  1.50619E+02 -1.00000E+00  1.16323E-01
      21    -1     0     0   502   501  0.000000000E+00  0.000000000E+00  1.295396475E+03  1.295396475E+03  0.000000000E+00  0.00000E+00  9.000E+00
      21    -1     0     0   501   512  0.000000000E+00  0.000000000E+00 -3.850886697E+02  3.850886697E+02  0.000000000E+00  0.00000E+00  9.000E+00
      25     1     1     2     0     0  3.364332651E+02  4.958135035E+01  3.911472100E+02  5.331667582E+02  1.250000000E+02  0.00000E+00  9.000E+00
      25     1     1     2     0     0 -2.338609763E+02 -1.598764948E+02  7.838410000E+02  8.427829869E+02  1.250000000E+02  0.00000E+00  9.000E+00
      21     1     1     2   502   512 -1.025722888E+02  1.102951444E+02 -2.646804043E+02  3.045353998E+02  0.000000000E+00  0.00000E+00  9.000E+00
#rwgt            1           1  0.10362231867264651                8       46569           0
</event>
<event>
      5   9999  3.79277E-02  1.25442E+02 -1.00000E+00  1.19556E-01
       2    -1     0     0   502     0  0.000000000E+00  0.000000000E+00  2.025887908E+03  2.025887908E+03  0.000000000E+00  0.00000E+00  9.000E+00
      21    -1     0     0   501   502  0.000000000E+00  0.000000000E+00 -6.333772718E+01  6.333772718E+01  0.000000000E+00  0.00000E+00  9.000E+00
      25     1     1     2     0     0 -2.296689524E+02  1.360968971E+02  8.409523023E+02  8.911206247E+02  1.250000000E+02  0.00000E+00  9.000E+00
      25     1     1     2     0     0  1.364730594E+02 -2.200620245E+02  8.815340989E+02  9.272429876E+02  1.250000000E+02  0.00000E+00  9.000E+00
       2     1     1     2   501     0  9.319589297E+01  8.396512742E+01  2.400637792E+02  2.708620224E+02  4.672030912E-06  0.00000E+00  9.000E+00
#rwgt            1           1   4.2598260863345401E-002           8       46631           0
</event>
<event>
      5   9999  3.79277E-02  1.96113E+01 -1.00000E+00  1.67075E-01
      21    -1     0     0   502   501  0.000000000E+00  0.000000000E+00  1.486001940E+02  1.486001940E+02  0.000000000E+00  0.00000E+00  9.000E+00
      21    -1     0     0   501   511  0.000000000E+00  0.000000000E+00 -3.397312549E+02  3.397312549E+02  0.000000000E+00  0.00000E+00  9.000E+00
      25     1     1     2     0     0  9.307617023E+01  1.112388396E+02 -1.322934275E+02  2.327311837E+02  1.250000000E+02  0.00000E+00  9.000E+00
      25     1     1     2     0     0 -1.110221745E+02 -1.033303620E+02 -3.155628688E+00  1.965656250E+02  1.250000000E+02  0.00000E+00  9.000E+00
      21     1     1     2   502   511  1.794600424E+01 -7.908477652E+00 -5.568200479E+01  5.903464021E+01  0.000000000E+00  0.00000E+00  9.000E+00
#rwgt            1           1   3.9573767281677663E-002           8       46735           0
</event>
<event>
      5   9999 -3.79277E-02  1.19761E+01 -1.00000E+00  1.87119E-01
      21    -1     0     0   512   501  0.000000000E+00  0.000000000E+00  4.966892431E+02  4.966892431E+02  0.000000000E+00  0.00000E+00  9.000E+00
      21    -1     0     0   501   502  0.000000000E+00  0.000000000E+00 -1.462204928E+02  1.462204928E+02  0.000000000E+00  0.00000E+00  9.000E+00
      25     1     1     2     0     0  9.532807302E+01 -1.792331397E+02  7.416887353E+01  2.496757531E+02  1.250000000E+02  0.00000E+00  9.000E+00
      25     1     1     2     0     0 -1.031495922E+02  1.883023765E+02  2.083628486E+02  3.242494411E+02  1.250000000E+02  0.00000E+00  9.000E+00
      21     1     1     2   512   502  7.821519157E+00 -9.069236806E+00  6.793702811E+01  6.898454180E+01  0.000000000E+00  0.00000E+00  9.000E+00
#rwgt            1           1 -0.23700732608490035                8       47008           0
</event>
<event>
      5   9999  3.79277E-02  2.34976E+01 -1.00000E+00  1.60794E-01
      21    -1     0     0   511   501  0.000000000E+00  0.000000000E+00  5.056018701E+02  5.056018701E+02  0.000000000E+00  0.00000E+00  9.000E+00
      21    -1     0     0   501   502  0.000000000E+00  0.000000000E+00 -1.817674773E+02  1.817674773E+02  0.000000000E+00  0.00000E+00  9.000E+00
      25     1     1     2     0     0 -6.227775344E+00  5.890138799E+01 -1.384071896E+02  1.956775634E+02  1.250000000E+02  0.00000E+00  9.000E+00
      25     1     1     2     0     0 -1.481930995E+01 -6.934920518E+01  4.083072863E+02  4.328611374E+02  1.250000000E+02  0.00000E+00  9.000E+00
      21     1     1     2   511   502  2.104708529E+01  1.044781719E+01  5.393429605E+01  5.883064656E+01  9.536743164E-07  0.00000E+00  9.000E+00
#rwgt            1           1   2.9143310122179168E-002           8       47322           0
</event>
<event>
      5   9999  3.79277E-02  4.09351E+01 -1.00000E+00  1.44220E-01
      21    -1     0     0   502   501  0.000000000E+00  0.000000000E+00  3.040429778E+02  3.040429778E+02  0.000000000E+00  0.00000E+00  9.000E+00
      21    -1     0     0   512   502  0.000000000E+00  0.000000000E+00 -4.129286576E+02  4.129286576E+02  0.000000000E+00  0.00000E+00  9.000E+00
      25     1     1     2     0     0  1.727525431E+02 -6.555897820E+01  1.126174897E+02  2.498982188E+02  1.250000000E+02  0.00000E+00  9.000E+00
      25     1     1     2     0     0 -1.414698917E+02  3.915679772E+01  4.455744538E+01  1.978821644E+02  1.250000000E+02  0.00000E+00  9.000E+00
      21     1     1     2   512   501 -3.128265147E+01  2.640218048E+01 -2.660606149E+02  2.691912522E+02  3.814697266E-06  0.00000E+00  9.000E+00
#rwgt            1           1   2.7021979221199831E-002           8       47557           0
</event>
<event>
      5   9999  3.79277E-02  4.00804E+01 -1.00000E+00  1.44786E-01
      21    -1     0     0   502   501  0.000000000E+00  0.000000000E+00  3.195414097E+02  3.195414097E+02  0.000000000E+00  0.00000E+00  9.000E+00
      21    -1     0     0   501   511  0.000000000E+00  0.000000000E+00 -1.250558869E+02  1.250558869E+02  0.000000000E+00  0.00000E+00  9.000E+00
      25     1     1     2     0     0 -1.077489804E+02 -5.206365914E+01  6.589920989E+01  1.851706598E+02  1.250000000E+02  0.00000E+00  9.000E+00
      25     1     1     2     0     0  1.323019385E+02  2.038412328E+01  1.183422174E+02  2.180577809E+02  1.250000000E+02  0.00000E+00  9.000E+00
      21     1     1     2   502   511 -2.455295809E+01  3.167953586E+01  1.024409554E+01  4.136885588E+01  8.172577143E-07  0.00000E+00  9.000E+00
#rwgt            1           1   3.2819189573118156E-002           8       47762           0
</event>
<event>
      5   9999  3.79277E-02  3.51390E+01 -1.00000E+00  1.48419E-01
      21    -1     0     0   502   501  0.000000000E+00  0.000000000E+00  7.447396852E+01  7.447396852E+01  0.000000000E+00  0.00000E+00  9.000E+00
      21    -1     0     0   501   512  0.000000000E+00  0.000000000E+00 -1.281853734E+03  1.281853734E+03  0.000000000E+00  0.00000E+00  9.000E+00
      25     1     1     2     0     0  1.072029525E+02  1.041523819E+02 -7.976799494E+02  8.211324457E+02  1.250000000E+02  0.00000E+00  9.000E+00
      25     1     1     2     0     0 -7.397233440E+01 -9.272967382E+01 -5.811671037E+01  1.818605254E+02  1.250000000E+02  0.00000E+00  9.000E+00
      21     1     1     2   502   512 -3.323061806E+01 -1.142270813E+01 -3.515831053E+02  3.533347311E+02  5.394796609E-06  0.00000E+00  9.000E+00
#rwgt            1           1   3.7648923114288815E-002           8       47905           0
</event>
<event>
      5   9999  3.79277E-02  4.67075E+01 -1.00000E+00  1.40785E-01
      21    -1     0     0   511   501  0.000000000E+00  0.000000000E+00  5.255518126E+01  5.255518126E+01  0.000000000E+00  0.00000E+00  9.000E+00
      21    -1     0     0   501   502  0.000000000E+00  0.000000000E+00 -2.501949370E+03  2.501949370E+03  0.000000000E+00  0.00000E+00  9.000E+00
      25     1     1     2     0     0  7.765306303E+01  1.701557646E+02 -1.377758315E+03  1.396003566E+03  1.250000000E+02  0.00000E+00  9.000E+00
      25     1     1     2     0     0 -3.446747565E+01 -1.879488850E+02 -1.085913295E+03  1.109660072E+03  1.250000000E+02  0.00000E+00  9.000E+00
      21     1     1     2   511   502 -4.318558738E+01  1.779312034E+01  1.427742107E+01  4.884091360E+01  2.718390048E-06  0.00000E+00  9.000E+00
#rwgt            1           1  0.66418947113567550                8       48173           0
</event>
<event>
      5   9999  3.79277E-02  3.96749E+01 -1.00000E+00  1.45060E-01
      -3    -1     0     0     0   501  0.000000000E+00  0.000000000E+00  3.872480534E+02  3.872480534E+02  0.000000000E+00  0.00000E+00  9.000E+00
      21    -1     0     0   501   502  0.000000000E+00  0.000000000E+00 -1.660612154E+02  1.660612154E+02  0.000000000E+00  0.00000E+00  9.000E+00
      25     1     1     2     0     0 -3.304854171E+01  8.428954359E+01 -9.590953406E+01  1.817156350E+02  1.250000000E+02  0.00000E+00  9.000E+00
      25     1     1     2     0     0  5.454929860E+01 -5.094566450E+01  1.959479834E+02  2.441141104E+02  1.250000000E+02  0.00000E+00  9.000E+00
      -3     1     1     2     0   502 -2.150075690E+01 -3.334387909E+01  1.211483887E+02  1.274795234E+02  0.000000000E+00  0.00000E+00  9.000E+00
#rwgt            1           1   3.8707325197325650E-002           8       48225           0
</event>
<event>
      5   9999  3.79277E-02  1.74933E+01 -1.00000E+00  1.71315E-01
      21    -1     0     0   502   501  0.000000000E+00  0.000000000E+00  2.458244462E+02  2.458244462E+02  0.000000000E+00  0.00000E+00  9.000E+00
      21    -1     0     0   501   511  0.000000000E+00  0.000000000E+00 -1.169459849E+03  1.169459849E+03  0.000000000E+00  0.00000E+00  9.000E+00
      25     1     1     2     0     0 -4.600845756E+01 -1.968333179E+02  1.241607337E+02  2.681436573E+02  1.250000000E+02  0.00000E+00  9.000E+00
      25     1     1     2     0     0  4.589961350E+01  2.143262721E+02 -2.715013144E+02  3.706487410E+02  1.250000000E+02  0.00000E+00  9.000E+00
      21     1     1     2   502   511  1.088440633E-01 -1.749295429E+01 -7.762948220E+02  7.764918969E+02  1.078959322E-05  0.00000E+00  9.000E+00
#rwgt            1           1  0.14896900606336613                8       48339           0
</event>
<event>
      5   9999  3.79277E-02  8.76322E+01 -1.00000E+00  1.26463E-01
      21    -1     0     0   502   512  0.000000000E+00  0.000000000E+00  1.407834667E+02  1.407834667E+02  0.000000000E+00  0.00000E+00  9.000E+00
      21    -1     0     0   501   502  0.000000000E+00  0.000000000E+00 -8.116479001E+02  8.116479001E+02  0.000000000E+00  0.00000E+00  9.000E+00
      25     1     1     2     0     0  5.804642241E+01  8.009444490E+01 -3.936517959E+01  1.641923403E+02  1.250000000E+02  0.00000E+00  9.000E+00
      25     1     1     2     0     0 -7.365182686E+01 -1.663259696E+02 -6.601287127E+02  6.960487318E+02  1.250000000E+02  0.00000E+00  9.000E+00
      21     1     1     2   501   512  1.560540446E+01  8.623152469E+01  2.862945890E+01  9.219029458E+01  1.581489940E-06  0.00000E+00  9.000E+00
#rwgt            1           1   3.5765894641220368E-002           8       48538           0
</event>
<event>
      5   9999  3.79277E-02  3.11347E+01 -1.00000E+00  1.51928E-01
      21    -1     0     0   502   501  0.000000000E+00  0.000000000E+00  6.876074262E+02  6.876074262E+02  0.000000000E+00  0.00000E+00  9.000E+00
       1    -1     0     0   501     0  0.000000000E+00  0.000000000E+00 -4.379585956E+02  4.379585956E+02  0.000000000E+00  0.00000E+00  9.000E+00
      25     1     1     2     0     0 -7.717053638E+00  1.593760245E+02  2.825980837E+02  3.477742760E+02  1.250000000E+02  0.00000E+00  9.000E+00
      25     1     1     2     0     0  5.852812362E+00 -1.904548245E+02  3.368444563E+02  4.066896646E+02  1.250000000E+02  0.00000E+00  9.000E+00
       1     1     1     2   502     0  1.864241276E+00  3.107880000E+01 -3.697937093E+02  3.711020812E+02  5.394796609E-06  0.00000E+00  9.000E+00
#rwgt            1           1  0.10477259392484457                8       48626           0
</event>
<event>
      5   9999  3.79277E-02  1.26627E+02 -1.00000E+00  1.19386E-01
      21    -1     0     0   511   501  0.000000000E+00  0.000000000E+00  5.203706388E+02  5.203706388E+02  0.000000000E+00  0.00000E+00  9.000E+00
      21    -1     0     0   501   502  0.000000000E+00  0.000000000E+00 -1.718546480E+02  1.718546480E+02  0.000000000E+00  0.00000E+00  9.000E+00
      25     1     1     2     0     0 -1.333546294E+01  1.962013603E+02  1.362472716E+01  2.334168836E+02  1.250000000E+02  0.00000E+00  9.000E+00
      25     1     1     2     0     0 -2.637830352E+01 -7.596304988E+01  6.809563960E+01  1.634876631E+02  1.250000000E+02  0.00000E+00  9.000E+00
      21     1     1     2   511   502  3.971376645E+01 -1.202383104E+02  2.667956240E+02  2.953207401E+02  5.394796609E-06  0.00000E+00  9.000E+00
#rwgt            1           1   1.5900629944951877E-002           8       48735           0
</event>
<event>
      5   9999 -3.79277E-02  5.13044E+01 -1.00000E+00  1.38440E-01
      21    -1     0     0   512   501  0.000000000E+00  0.000000000E+00  3.358578647E+02  3.358578647E+02  0.000000000E+00  0.00000E+00  9.000E+00
      21    -1     0     0   501   502  0.000000000E+00  0.000000000E+00 -7.748701699E+02  7.748701699E+02  0.000000000E+00  0.00000E+00  9.000E+00
      25     1     1     2     0     0  2.097468931E+02 -1.760807953E+02  1.455236484E+02  3.343655752E+02  1.250000000E+02  0.00000E+00  9.000E+00
      25     1     1     2     0     0 -2.517014648E+02  1.465518314E+02 -6.316486634E+02  7.067079317E+02  1.250000000E+02  0.00000E+00  9.000E+00
      21     1     1     2   512   502  4.195457165E+01  2.952896389E+01  4.711270982E+01  6.965452761E+01  6.743495762E-07  0.00000E+00  9.000E+00
#rwgt            1           1  -1.1648920299787424E-002           8       48791           0
</event>
<event>
      5   9999  3.79277E-02  3.51053E+01 -1.00000E+00  1.48446E-01
      21    -1     0     0   511   501  0.000000000E+00  0.000000000E+00  1.567226678E+02  1.567226678E+02  0.000000000E+00  0.00000E+00  9.000E+00
      21    -1     0     0   501   502  0.000000000E+00  0.000000000E+00 -4.376165067E+02  4.376165067E+02  0.000000000E+00  0.00000E+00  9.000E+00
      25     1     1     2     0     0  1.842045916E+02  4.578961396E+00 -2.188119594E+02  3.121793908E+02  1.250000000E+02  0.00000E+00  9.000E+00
      25     1     1     2     0     0 -2.025467941E+02  2.535339574E+01 -4.689409390E+01  2.439099311E+02  1.250000000E+02  0.00000E+00  9.000E+00
      21     1     1     2   511   502  1.834220252E+01 -2.993235714E+01 -1.518778554E+01  3.824985264E+01  2.920019320E-07  0.00000E+00  9.000E+00
#rwgt            1           1   3.4947368349332590E-002           8       48950           0
</event>
<event>
      5   9999  3.79277E-02  4.88953E+01 -1.00000E+00  1.39631E-01
      21    -1     0     0   502   501  0.000000000E+00  0.000000000E+00  3.395325661E+01  3.395325661E+01  0.000000000E+00  0.00000E+00  9.000E+00
      -2    -1     0     0     0   502  0.000000000E+00  0.000000000E+00 -2.108631877E+03  2.108631877E+03  0.000000000E+00  0.00000E+00  9.000E+00
      25     1     1     2     0     0  3.184749924E+01 -8.852491391E+01 -6.211602139E+02  6.405590799E+02  1.250000000E+02  0.00000E+00  9.000E+00
      25     1     1     2     0     0 -5.256571805E+01  4.423597112E+01 -1.900981869E+02  2.376600440E+02  1.250000000E+02  0.00000E+00  9.000E+00
      -2     1     1     2     0   501  2.071821880E+01  4.428894279E+01 -1.263420220E+03  1.264366010E+03  0.000000000E+00  0.00000E+00  9.000E+00
#rwgt            1           1   2.6397237002503779E-002           8       49106           0
</event>
<event>
      5   9999  3.79277E-02  2.84443E+01 -1.00000E+00  1.54664E-01
      21    -1     0     0   502   501  0.000000000E+00  0.000000000E+00  2.899208781E+02  2.899208781E+02  0.000000000E+00  0.00000E+00  9.000E+00
      21    -1     0     0   501   511  0.000000000E+00  0.000000000E+00 -2.672937571E+02  2.672937571E+02  0.000000000E+00  0.00000E+00  9.000E+00
      25     1     1     2     0     0 -9.360959083E+01 -1.331178998E+02  1.442491641E+02  2.508305246E+02  1.250000000E+02  0.00000E+00  9.000E+00
      25     1     1     2     0     0  1.049095172E+02  1.070144408E+02 -1.465349093E+01  1.956982936E+02  1.250000000E+02  0.00000E+00  9.000E+00
      21     1     1     2   502   511 -1.129992636E+01  2.610345902E+01 -1.069685522E+02  1.106858169E+02  2.697398305E-06  0.00000E+00  9.000E+00
#rwgt            1           1   4.1888222930932577E-002           8       49170           0
</event>
<event>
      5   9999  3.79277E-02  6.60709E+01 -1.00000E+00  1.32504E-01
      21    -1     0     0   512   501  0.000000000E+00  0.000000000E+00  3.046302851E+02  3.046302851E+02  0.000000000E+00  0.00000E+00  9.000E+00
      21    -1     0     0   501   502  0.000000000E+00  0.000000000E+00 -4.508298686E+02  4.508298686E+02  0.000000000E+00  0.00000E+00  9.000E+00
      25     1     1     2     0     0 -2.606305254E+01 -4.010146478E+01 -3.797314196E+02  4.026268262E+02  1.250000000E+02  0.00000E+00  9.000E+00
      25     1     1     2     0     0 -2.037359704E+01 -6.898509729E+00  1.886955941E+01  1.282331204E+02  1.250000000E+02  0.00000E+00  9.000E+00
      21     1     1     2   512   502  4.643664958E+01  4.699997451E+01  2.146622766E+02  2.246002071E+02  5.394796609E-06  0.00000E+00  9.000E+00
#rwgt            1           1   3.0968854984948190E-002           8       49450           0
</event>
<event>
      5   9999  3.79277E-02  1.10019E+01 -1.00000E+00  1.91082E-01
      21    -1     0     0   502   501  0.000000000E+00  0.000000000E+00  7.817723964E+02  7.817723964E+02  0.000000000E+00  0.00000E+00  9.000E+00
      21    -1     0     0   511   502  0.000000000E+00  0.000000000E+00 -7.740768990E+01  7.740768990E+01  0.000000000E+00  0.00000E+00  9.000E+00
      25     1     1     2     0     0  1.072630884E+02  1.140835765E+02  1.690216854E+02  2.621331011E+02  1.250000000E+02  0.00000E+00  9.000E+00
      25     1     1     2     0     0 -9.683266166E+01 -1.105837437E+02  5.475862226E+02  5.805867721E+02  1.250000000E+02  0.00000E+00  9.000E+00
      21     1     1     2   511   501 -1.043042676E+01 -3.499832769E+00 -1.224320152E+01  1.646021310E+01  3.371747881E-07  0.00000E+00  9.000E+00
#rwgt            1           1   3.4607116165180120E-002           8       49531           0
</event>
<event>
      5   9999  3.79277E-02  1.40824E+01 -1.00000E+00  1.80006E-01
       1    -1     0     0   502     0  0.000000000E+00  0.000000000E+00  6.850816751E+02  6.850816751E+02  0.000000000E+00  0.00000E+00  9.000E+00
      21    -1     0     0   501   502  0.000000000E+00  0.000000000E+00 -3.165429581E+02  3.165429581E+02  0.000000000E+00  0.00000E+00  9.000E+00
      25     1     1     2     0     0  7.281600408E+01 -8.643714712E+01  1.415367495E+02  2.200709029E+02  1.250000000E+02  0.00000E+00  9.000E+00
      25     1     1     2     0     0 -8.364476845E+01  7.743428352E+01 -2.513602313E+02  3.029842924E+02  1.250000000E+02  0.00000E+00  9.000E+00
       1     1     1     2   501     0  1.082876437E+01  9.002863599E+00  4.783621988E+02  4.785694379E+02  0.000000000E+00  0.00000E+00  9.000E+00
#rwgt            1           1   4.6060293814591834E-002           8       49846           0
</event>
<event>
      5   9999  3.79277E-02  2.42818E+01 -1.00000E+00  1.59705E-01
      21    -1     0     0   502   511  0.000000000E+00  0.000000000E+00  2.623043509E+02  2.623043509E+02  0.000000000E+00  0.00000E+00  9.000E+00
      21    -1     0     0   501   502  0.000000000E+00  0.000000000E+00 -3.148159016E+02  3.148159016E+02  0.000000000E+00  0.00000E+00  9.000E+00
      25     1     1     2     0     0  5.434242952E+01 -1.436630373E+02  1.344606138E+02  2.393675512E+02  1.250000000E+02  0.00000E+00  9.000E+00
      25     1     1     2     0     0 -7.812760387E+01  1.485488488E+02 -2.154304551E+02  3.003430771E+02  1.250000000E+02  0.00000E+00  9.000E+00
      21     1     1     2   501   511  2.378517435E+01 -4.885811531E+00  2.845829068E+01  3.740962419E+01  4.768371582E-07  0.00000E+00  9.000E+00
#rwgt            1           1   4.4095538744843371E-002           8       50070           0
</event>
<event>
      5   9999  3.79277E-02  5.54195E+01 -1.00000E+00  1.36573E-01
      21    -1     0     0   502   512  0.000000000E+00  0.000000000E+00  1.897152335E+02  1.897152335E+02  0.000000000E+00  0.00000E+00  9.000E+00
      21    -1     0     0   501   502  0.000000000E+00  0.000000000E+00 -7.994558384E+02  7.994558384E+02  0.000000000E+00  0.00000E+00  9.000E+00
      25     1     1     2     0     0  2.160872171E+02 -1.056868607E+02 -6.527410205E+02  7.067950465E+02  1.250000000E+02  0.00000E+00  9.000E+00
      25     1     1     2     0     0 -1.663501346E+02  8.124214396E+01  3.952458740E+01  2.268476278E+02  1.250000000E+02  0.00000E+00  9.000E+00
      21     1     1     2   501   512 -4.973708251E+01  2.444471674E+01  3.475828201E+00  5.552839755E+01  1.031522053E-06  0.00000E+00  9.000E+00
#rwgt            1           1   3.6854633092120469E-002           8       50211           0
</event>
<event>
      5   9999 -3.79277E-02  8.70217E+01 -1.00000E+00  1.26606E-01
      21    -1     0     0   502   511  0.000000000E+00  0.000000000E+00  5.567682096E+02  5.567682096E+02  0.000000000E+00  0.00000E+00  9.000E+00
      21    -1     0     0   501   502  0.000000000E+00  0.000000000E+00 -1.852529447E+02  1.852529447E+02  0.000000000E+00  0.00000E+00  9.000E+00
      25     1     1     2     0     0  1.480181537E+02  3.104098458E+01  1.840583901E+01  1.970702704E+02  1.250000000E+02  0.00000E+00  9.000E+00
      25     1     1     2     0     0 -1.397661081E+02 -1.176705843E+02  4.646361194E+01  2.261963718E+02  1.250000000E+02  0.00000E+00  9.000E+00
      21     1     1     2   501   511 -8.252045604E+00  8.662959972E+01  3.066458139E+02  3.187545121E+02  5.394796609E-06  0.00000E+00  9.000E+00
#rwgt            1           1 -0.36591193362400981                8       50344           0
</event>
<event>
      5   9999 -5.04052E-02  3.22403E+01 -1.00000E+00  1.50899E-01
      21    -1     0     0   512   501  0.000000000E+00  0.000000000E+00  3.515186654E+01  3.515186654E+01  0.000000000E+00  0.00000E+00  9.000E+00
      21    -1     0     0   501   502  0.000000000E+00  0.000000000E+00 -1.987897902E+03  1.987897902E+03  0.000000000E+00  0.00000E+00  9.000E+00
      25     1     1     2     0     0 -1.294168263E+02 -1.657690653E+02 -1.306747133E+03  1.329451454E+03  1.250000000E+02  0.00000E+00  9.000E+00
      25     1     1     2     0     0  1.199027394E+02  1.349645451E+02 -5.791731778E+02  6.194018609E+02  1.250000000E+02  0.00000E+00  9.000E+00
      21     1     1     2   512   502  9.514086885E+00  3.080452016E+01 -6.682572395E+01  7.419645338E+01  9.536743164E-07  0.00000E+00  9.000E+00
#rwgt            1           1 -0.33141592211083365                8       50415           0
</event>
<event>
      5   9999  3.79277E-02  4.43037E+01 -1.00000E+00  1.42140E-01
      21    -1     0     0   502   501  0.000000000E+00  0.000000000E+00  3.257966904E+01  3.257966904E+01  0.000000000E+00  0.00000E+00  9.000E+00
      21    -1     0     0   511   502  0.000000000E+00  0.000000000E+00 -1.407670161E+03  1.407670161E+03  0.000000000E+00  0.00000E+00  9.000E+00
      25     1     1     2     0     0  3.443334319E+01  1.419725531E+02 -5.157593413E+02  5.504312483E+02  1.250000000E+02  0.00000E+00  9.000E+00
      25     1     1     2     0     0  6.064141243E+00 -1.240066100E+02 -5.553530602E+02  5.826288995E+02  1.250000000E+02  0.00000E+00  9.000E+00
      21     1     1     2   511   501 -4.049748443E+01 -1.796594311E+01 -3.039780903E+02  3.071896820E+02  3.814697266E-06  0.00000E+00  9.000E+00
#rwgt            1           1   3.5109316055779015E-002           8       50635           0
</event>
<event>
      5   9999  3.79277E-02  6.44208E+01 -1.00000E+00  1.33074E-01
      21    -1     0     0   502   501  0.000000000E+00  0.000000000E+00  2.137728543E+02  2.137728543E+02  0.000000000E+00  0.00000E+00  9.000E+00
      21    -1     0     0   501   512  0.000000000E+00  0.000000000E+00 -2.501323750E+02  2.501323750E+02  0.000000000E+00  0.00000E+00  9.000E+00
      25     1     1     2     0     0  3.687769513E+01 -1.413693984E+02 -2.232922811E+01  1.935687620E+02  1.250000000E+02  0.00000E+00  9.000E+00
      25     1     1     2     0     0 -5.322826633E+00  8.520599759E+01  6.807525088E+01  1.659748002E+02  1.250000000E+02  0.00000E+00  9.000E+00
      21     1     1     2   502   512 -3.155486850E+01  5.616340077E+01 -8.210554347E+01  1.043616672E+02  1.651812370E-06  0.00000E+00  9.000E+00
#rwgt            1           1   3.5316032251145192E-002           8       50770           0
</event>
<event>
      5   9999  3.79277E-02  7.90367E+01 -1.00000E+00  1.28605E-01
      21    -1     0     0   502   501  0.000000000E+00  0.000000000E+00  1.522113967E+02  1.522113967E+02  0.000000000E+00  0.00000E+00  9.000E+00
      21    -1     0     0   501   511  0.000000000E+00  0.000000000E+00 -5.065334188E+02  5.065334188E+02  0.000000000E+00  0.00000E+00  9.000E+00
      25     1     1     2     0     0 -5.075503540E+01 -1.728241226E+02 -3.415387299E+01  2.218912752E+02  1.250000000E+02  0.00000E+00  9.000E+00
      25     1     1     2     0     0 -1.726438046E+00  1.137267535E+02 -8.583519814E+01  1.895506167E+02  1.250000000E+02  0.00000E+00  9.000E+00
      21     1     1     2   502   511  5.248147345E+01  5.909736906E+01 -2.343329510E+02  2.473029235E+02  2.697398305E-06  0.00000E+00  9.000E+00
#rwgt            1           1   5.9143984294785706E-002           8       50987           0
</event>
<event>
      5   9999  3.79277E-02  3.28876E+01 -1.00000E+00  1.50319E-01
      21    -1     0     0   512   501  0.000000000E+00  0.000000000E+00  8.943191215E+02  8.943191215E+02  0.000000000E+00  0.00000E+00  9.000E+00
      21    -1     0     0   501   502  0.000000000E+00  0.000000000E+00 -5.470986605E+01  5.470986605E+01  0.000000000E+00  0.00000E+00  9.000E+00
      25     1     1     2     0     0 -9.976987817E+01 -1.642041540E+01  3.980322528E+02  4.292765227E+02  1.250000000E+02  0.00000E+00  9.000E+00
      25     1     1     2     0     0  9.563454222E+01 -1.620614259E+01  1.254491678E+02  2.019185440E+02  1.250000000E+02  0.00000E+00  9.000E+00
      21     1     1     2   512   502  4.135335953E+00  3.262655800E+01  3.161278348E+02  3.178339208E+02  3.814697266E-06  0.00000E+00  9.000E+00
#rwgt            1           1   4.4382575051629639E-002           8       51077           0
</event>
<event>
      5   9999  3.79277E-02  3.32142E+01 -1.00000E+00  1.50032E-01
      21    -1     0     0   511   501  0.000000000E+00  0.000000000E+00  1.013309947E+03  1.013309947E+03  0.000000000E+00  0.00000E+00  9.000E+00
      21    -1     0     0   501   502  0.000000000E+00  0.000000000E+00 -6.144566856E+01  6.144566856E+01  0.000000000E+00  0.00000E+00  9.000E+00
      25     1     1     2     0     0 -9.261308007E+01 -1.463671754E+02  2.887948231E+02  3.592046527E+02  1.250000000E+02  0.00000E+00  9.000E+00
      25     1     1     2     0     0  1.245626110E+02  1.554450703E+02  5.956873453E+02  6.404275348E+02  1.250000000E+02  0.00000E+00  9.000E+00
      21     1     1     2   511   502 -3.194953097E+01 -9.077894929E+00  6.738211006E+01  7.512342818E+01  1.348699152E-06  0.00000E+00  9.000E+00
#rwgt            2          11   3.4853579897995710E-003           8       51382           0
</event>
<event>
      5   9999  3.79277E-02  2.57983E+01 -1.00000E+00  1.57735E-01
      21    -1     0     0   512   501  0.000000000E+00  0.000000000E+00  2.129938846E+02  2.129938846E+02  0.000000000E+00  0.00000E+00  9.000E+00
      21    -1     0     0   501   502  0.000000000E+00  0.000000000E+00 -2.417140156E+02  2.417140156E+02  0.000000000E+00  0.00000E+00  9.000E+00
      25     1     1     2     0     0  5.271799158E+01 -1.648653051E+02  6.252157525E+00  2.135973898E+02  1.250000000E+02  0.00000E+00  9.000E+00
      25     1     1     2     0     0 -5.295665957E+01  1.390681191E+02 -6.175933778E+01  2.039204878E+02  1.250000000E+02  0.00000E+00  9.000E+00
      21     1     1     2   512   502  2.386679897E-01  2.579718596E+01  2.678704925E+01  3.719002250E+01  3.371747881E-07  0.00000E+00  9.000E+00
#rwgt            1           1   3.4384635853115117E-002           8       51462           0
</event>
<event>
      5   9999  3.79277E-02  6.80208E+01 -1.00000E+00  1.31855E-01
      21    -1     0     0   502   511  0.000000000E+00  0.000000000E+00  1.323432969E+02  1.323432969E+02  0.000000000E+00  0.00000E+00  9.000E+00
      21    -1     0     0   501   502  0.000000000E+00  0.000000000E+00 -5.969886740E+02  5.969886740E+02  0.000000000E+00  0.00000E+00  9.000E+00
      25     1     1     2     0     0  2.272917250E+01  1.146563018E+02 -2.268066395E+02  2.841283769E+02  1.250000000E+02  0.00000E+00  9.000E+00
      25     1     1     2     0     0  1.978046278E+01 -1.677577642E+02 -2.909511318E+02  3.589031837E+02  1.250000000E+02  0.00000E+00  9.000E+00
      21     1     1     2   501   511 -4.250963528E+01  5.310146236E+01  5.311239425E+01  8.630041031E+01  1.651812370E-06  0.00000E+00  9.000E+00
#rwgt            1           1   5.2703942915121871E-002           8       51719           0
</event>
<event>
      5   9999  3.79277E-02  1.48167E+01 -1.00000E+00  1.77888E-01
      21    -1     0     0   502   501  0.000000000E+00  0.000000000E+00  8.588179038E+02  8.588179038E+02  0.000000000E+00  0.00000E+00  9.000E+00
      21    -1     0     0   501   512  0.000000000E+00  0.000000000E+00 -6.028844173E+01  6.028844173E+01  0.000000000E+00  0.00000E+00  9.000E+00
      25     1     1     2     0     0  5.969340977E+01  1.278719360E+02  6.414969597E+02  6.686238737E+02  1.250000000E+02  0.00000E+00  9.000E+00
      25     1     1     2     0     0 -5.251484354E+01 -1.149103000E+02  1.544109249E+02  2.354355954E+02  1.250000000E+02  0.00000E+00  9.000E+00
      21     1     1     2   502   512 -7.178566236E+00 -1.296163600E+01  2.621577373E+00  1.504687638E+01  1.908279728E-07  0.00000E+00  9.000E+00
#rwgt            1           1   3.9538363787808048E-002           8       51829           0
</event>
<event>
      5   9999 -3.79277E-02  6.92301E+01 -1.00000E+00  1.31464E-01
      21    -1     0     0   502   511  0.000000000E+00  0.000000000E+00  3.798167866E+02  3.798167866E+02  0.000000000E+00  0.00000E+00  9.000E+00
      21    -1     0     0   501   502  0.000000000E+00  0.000000000E+00 -4.611915086E+02  4.611915086E+02  0.000000000E+00  0.00000E+00  9.000E+00
      25     1     1     2     0     0  3.117192216E+02  1.278195348E+02 -9.641982944E+01  3.720597937E+02  1.250000000E+02  0.00000E+00  9.000E+00
      25     1     1     2     0     0 -2.860334262E+02 -6.353074228E+01 -1.006898299E+02  3.340878895E+02  1.250000000E+02  0.00000E+00  9.000E+00
      21     1     1     2   501   511 -2.568579540E+01 -6.428879254E+01  1.157349374E+02  1.348606120E+02  1.348699152E-06  0.00000E+00  9.000E+00
#rwgt            1           1  -7.5400860013353124E-002           8       52118           0
</event>
<event>
      5   9999  3.79277E-02  1.77851E+02 -1.00000E+00  1.13536E-01
      21    -1     0     0   502   501  0.000000000E+00  0.000000000E+00  2.465003495E+02  2.465003495E+02  0.000000000E+00  0.00000E+00  9.000E+00
       1    -1     0     0   501     0  0.000000000E+00  0.000000000E+00 -8.711542551E+02  8.711542551E+02  0.000000000E+00  0.00000E+00  9.000E+00
      25     1     1     2     0     0  1.044512693E+02 -3.580845450E+01  1.804220053E+02  2.457018785E+02  1.250000000E+02  0.00000E+00  9.000E+00
      25     1     1     2     0     0  7.138392473E+01  6.251028145E+01 -3.662676173E+02  3.984722920E+02  1.250000000E+02  0.00000E+00  9.000E+00
       1     1     1     2   502     0 -1.758351940E+02 -2.670182695E+01 -4.388082936E+02  4.734804342E+02  0.000000000E+00  0.00000E+00  9.000E+00
#rwgt            1           1   3.9449730281381504E-002           8       52449           0
</event>
<event>
      5   9999  3.79277E-02  2.41149E+01 -1.00000E+00  1.59932E-01
      21    -1     0     0   511   501  0.000000000E+00  0.000000000E+00  3.121954268E+02  3.121954268E+02  0.000000000E+00  0.00000E+00  9.000E+00
      21    -1     0     0   501   502  0.000000000E+00  0.000000000E+00 -3.225558174E+02  3.225558174E+02  0.000000000E+00  0.00000E+00  9.000E+00
      25     1     1     2     0     0  8.352391960E+01 -9.796622176E+01 -1.050838015E+02  2.079452598E+02  1.250000000E+02  0.00000E+00  9.000E+00
      25     1     1     2     0     0 -1.064035255E+02  9.034698106E+01 -1.122551542E+02  2.184273492E+02  1.250000000E+02  0.00000E+00  9.000E+00
      21     1     1     2   511   502  2.287960591E+01  7.619240700E+00  2.069785650E+02  2.083786351E+02  2.697398305E-06  0.00000E+00  9.000E+00
#rwgt            1           1   4.1360458365250465E-002           8       52501           0
</event>
<event>
      5   9999 -3.79277E-02  5.33251E+01 -1.00000E+00  1.37499E-01
      21    -1     0     0   502   501  0.000000000E+00  0.000000000E+00  1.085430747E+02  1.085430747E+02  0.000000000E+00  0.00000E+00  9.000E+00
       2    -1     0     0   501     0  0.000000000E+00  0.000000000E+00 -7.512001317E+02  7.512001317E+02  0.000000000E+00  0.00000E+00  9.000E+00
      25     1     1     2     0     0 -1.615829994E+02 -1.436116949E+02 -2.440910287E+02  3.491973867E+02  1.250000000E+02  0.00000E+00  9.000E+00
      25     1     1     2     0     0  1.198702857E+02  1.103909135E+02 -1.449324042E+02  2.513671438E+02  1.250000000E+02  0.00000E+00  9.000E+00
       2     1     1     2   502     0  4.171271378E+01  3.322078132E+01 -2.536336240E+02  2.591786759E+02  2.697398305E-06  0.00000E+00  9.000E+00
#rwgt            1           1 -0.18320812385170823                8       52727           0
</event>
<event>
      5   9999 -3.79277E-02  3.07607E+01 -1.00000E+00  1.52288E-01
      21    -1     0     0   502   511  0.000000000E+00  0.000000000E+00  2.220950482E+02  2.220950482E+02  0.000000000E+00  0.00000E+00  9.000E+00
      21    -1     0     0   501   502  0.000000000E+00  0.000000000E+00 -2.303443223E+02  2.303443223E+02  0.000000000E+00  0.00000E+00  9.000E+00
      25     1     1     2     0     0  7.691964392E+00  1.408642559E+02 -6.662740561E+01  1.999152723E+02  1.250000000E+02  0.00000E+00  9.000E+00
      25     1     1     2     0     0 -3.650899499E+01 -1.516252241E+02  1.648281129E+01  2.005487431E+02  1.250000000E+02  0.00000E+00  9.000E+00
      21     1     1     2   501   511  2.881703059E+01  1.076096818E+01  4.189532021E+01  5.197535516E+01  1.066240300E-06  0.00000E+00  9.000E+00
#rwgt            1           1 -0.27870280276220177                8       52920           0
</event>
<event>
      5   9999  3.79277E-02  6.95597E+01 -1.00000E+00  1.31360E-01
      21    -1     0     0   502   501  0.000000000E+00  0.000000000E+00  6.507194490E+01  6.507194490E+01  0.000000000E+00  0.00000E+00  9.000E+00
      21    -1     0     0   512   502  0.000000000E+00  0.000000000E+00 -1.892531348E+03  1.892531348E+03  0.000000000E+00  0.00000E+00  9.000E+00
      25     1     1     2     0     0 -2.026855830E+02  1.501399202E+02 -4.004608291E+02  4.895072184E+02  1.250000000E+02  0.00000E+00  9.000E+00
      25     1     1     2     0     0  1.371954918E+02 -1.735835556E+02 -8.574354916E+02  8.943011104E+02  1.250000000E+02  0.00000E+00  9.000E+00
      21     1     1     2   512   501  6.549009117E+01  2.344363539E+01 -5.695630823E+02  5.737949641E+02  0.000000000E+00  0.00000E+00  9.000E+00
#rwgt            1           1   2.5377145918748647E-002           8       53102           0
</event>
<event>
      5   9999  3.79277E-02  5.66239E+01 -1.00000E+00  1.36061E-01
      21    -1     0     0   502   501  0.000000000E+00  0.000000000E+00  7.534763728E+01  7.534763728E+01  0.000000000E+00  0.00000E+00  9.000E+00
      21    -1     0     0   511   502  0.000000000E+00  0.000000000E+00 -1.319980297E+03  1.319980297E+03  0.000000000E+00  0.00000E+00  9.000E+00
      25     1     1     2     0     0 -9.381388348E+00 -1.972756690E+02 -5.065756476E+02  5.578974698E+02  1.250000000E+02  0.00000E+00  9.000E+00
      25     1     1     2     0     0 -3.225999084E+01  2.356457400E+02 -3.304126367E+02  4.258722018E+02  1.250000000E+02  0.00000E+00  9.000E+00
      21     1     1     2   511   501  4.164137919E+01 -3.837007100E+01 -4.076443758E+02  4.115582631E+02  0.000000000E+00  0.00000E+00  9.000E+00
#rwgt            1           1   2.4989980786585691E-002           8       53198           0
</event>
<event>
      5   9999  3.79277E-02  5.56624E+01 -1.00000E+00  1.36468E-01
       2    -1     0     0   502     0  0.000000000E+00  0.000000000E+00  6.047519661E+02  6.047519661E+02  0.000000000E+00  0.00000E+00  9.000E+00
      21    -1     0     0   501   502  0.000000000E+00  0.000000000E+00 -2.444543777E+03  2.444543777E+03  0.000000000E+00  0.00000E+00  9.000E+00
      25     1     1     2     0     0 -1.379119492E+02 -2.770275757E+02 -1.287342329E+03  1.329901972E+03  1.250000000E+02  0.00000E+00  9.000E+00
      25     1     1     2     0     0  1.771075769E+02  2.375053268E+02 -1.111755395E+03  1.157324904E+03  1.250000000E+02  0.00000E+00  9.000E+00
       2     1     1     2   501     0 -3.919562771E+01  3.952224895E+01  5.593059139E+02  5.620688665E+02  7.629394531E-06  0.00000E+00  9.000E+00
#rwgt            1           1   6.4705689951511131E-002           8       53274           0
</event>
<event>
      5   9999  3.79277E-02  7.43306E+01 -1.00000E+00  1.29914E-01
      21    -1     0     0   502   501  0.000000000E+00  0.000000000E+00  1.834487688E+03  1.834487688E+03  0.000000000E+00  0.00000E+00  9.000E+00
      21    -1     0     0   501   511  0.000000000E+00  0.000000000E+00 -7.161083762E+01  7.161083762E+01  0.000000000E+00  0.00000E+00  9.000E+00
      25     1     1     2     0     0  1.691414562E+01 -2.100263219E+02  2.308983326E+02  3.366543987E+02  1.250000000E+02  0.00000E+00  9.000E+00
      25     1     1     2     0     0  5.570602752E+01  1.941721280E+02  1.379603065E+03  1.399905566E+03  1.250000000E+02  0.00000E+00  9.000E+00
      21     1     1     2   502   511 -7.262017314E+01  1.585419387E+01  1.523754531E+02  1.695385611E+02  1.907348633E-06  0.00000E+00  9.000E+00
#rwgt            1           1   3.3309207380532224E-002           8       53445           0
</event>
<event>
      5   9999  3.79277E-02  2.69651E+01 -1.00000E+00  1.56328E-01
      21    -1     0     0   502   501  0.000000000E+00  0.000000000E+00  9.227355439E+01  9.227355439E+01  0.000000000E+00  0.00000E+00  9.000E+00
       1    -1     0     0   501     0  0.000000000E+00  0.000000000E+00 -8.756758615E+02  8.756758615E+02  0.000000000E+00  0.00000E+00  9.000E+00
      25     1     1     2     0     0 -1.849636574E+02 -2.231651933E+01 -1.446344058E+02  2.669338737E+02  1.250000000E+02  0.00000E+00  9.000E+00
      25     1     1     2     0     0  1.685202785E+02  9.452331421E-01 -3.298937173E+02  3.909665490E+02  1.250000000E+02  0.00000E+00  9.000E+00
       1     1     1     2   502     0  1.644337892E+01  2.137128619E+01 -3.088741840E+02  3.100489932E+02  5.394796609E-06  0.00000E+00  9.000E+00
#rwgt            1           1   1.3261487987907591E-002           8       53575           0
</event>
<event>
      5   9999  3.79277E-02  1.98725E+01 -1.00000E+00  1.66599E-01
      21    -1     0     0   502   501  0.000000000E+00  0.000000000E+00  3.672128435E+02  3.672128435E+02  0.000000000E+00  0.00000E+00  9.000E+00
      21    -1     0     0   511   502  0.000000000E+00  0.000000000E+00 -8.533696887E+01  8.533696887E+01  0.000000000E+00  0.00000E+00  9.000E+00
      25     1     1     2     0     0 -2.387120321E+01 -1.036497626E+02  1.939603186E+02  2.540840665E+02  1.250000000E+02  0.00000E+00  9.000E+00
      25     1     1     2     0     0  5.302064818E+00  9.657152784E+01  7.877852494E+01  1.765933970E+02  1.250000000E+02  0.00000E+00  9.000E+00
      21     1     1     2   511   501  1.856913840E+01  7.078234787E+00  9.137031047E+00  2.187234886E+01  3.153981341E-07  0.00000E+00  9.000E+00
#rwgt            1           1   4.3381801004667542E-002           8       53834           0
</event>
<event>
      5   9999  3.79277E-02  2.73208E+01 -1.00000E+00  1.55916E-01
      21    -1     0     0   502   501  0.000000000E+00  0.000000000E+00  1.866532605E+03  1.866532605E+03  0.000000000E+00  0.00000E+00  9.000E+00
      21    -1     0     0   512   502  0.000000000E+00  0.000000000E+00 -4.912379027E+01  4.912379027E+01  0.000000000E+00  0.00000E+00  9.000E+00
      25     1     1     2     0     0  1.701035814E+02 -4.976754484E+01  3.184494036E+02  3.852882811E+02  1.250000000E+02  0.00000E+00  9.000E+00
      25     1     1     2     0     0 -1.553547470E+02  7.276527064E+01  1.484227523E+03  1.499328590E+03  1.250000000E+02  0.00000E+00  9.000E+00
      21     1     1     2   512   501 -1.474883438E+01 -2.299772580E+01  1.473188822E+01  3.103952381E+01  5.057621821E-07  0.00000E+00  9.000E+00
#rwgt            1           1   2.4324029972853829E-002           8       53964           0
</event>
<event>
      5   9999  3.79277E-02  8.69037E+01 -1.00000E+00  1.26633E-01
      21    -1     0     0   502   511  0.000000000E+00  0.000000000E+00  1.541478832E+02  1.541478832E+02  0.000000000E+00  0.00000E+00  9.000E+00
      21    -1     0     0   501   502  0.000000000E+00  0.000000000E+00 -1.084310126E+03  1.084310126E+03  0.000000000E+00  0.00000E+00  9.000E+00
      25     1     1     2     0     0 -1.748868559E+02 -2.615420116E+02 -1.816596553E+02  3.842068018E+02  1.250000000E+02  0.00000E+00  9.000E+00
      25     1     1     2     0     0  1.000067674E+02  2.174372882E+02 -7.092235743E+02  7.588829990E+02  1.250000000E+02  0.00000E+00  9.000E+00
      21     1     1     2   501   511  7.488008846E+01  4.410472343E+01 -3.927901299E+01  9.536820822E+01  1.168007728E-06  0.00000E+00  9.000E+00
#rwgt            2          11   3.9417472547073227E-003           8       54227           0
</event>
<event>
      5   9999  3.79277E-02  8.65050E+01 -1.00000E+00  1.26727E-01
       1    -1     0     0   502     0  0.000000000E+00  0.000000000E+00  1.995772143E+03  1.995772143E+03  0.000000000E+00  0.00000E+00  9.000E+00
      21    -1     0     0   501   502  0.000000000E+00  0.000000000E+00 -2.949340385E+02  2.949340385E+02  0.000000000E+00  0.00000E+00  9.000E+00
      25     1     1     2     0     0 -1.393850653E+02 -4.614411912E+01 -1.761391342E+02  2.611656002E+02  1.250000000E+02  0.00000E+00  9.000E+00
      25     1     1     2     0     0  6.984858108E+01  9.760083773E+01  2.446460598E+01  1.750093276E+02  1.250000000E+02  0.00000E+00  9.000E+00
       1     1     1     2   501     0  6.953648419E+01 -5.145671861E+01  1.852512633E+03  1.854531254E+03  3.051757812E-05  0.00000E+00  9.000E+00
#rwgt            1           1   4.6966996092252106E-002           8       54247           0
</event>
<event>
      5   9999  3.79277E-02  4.17066E+01 -1.00000E+00  1.43724E-01
      21    -1     0     0   502   501  0.000000000E+00  0.000000000E+00  1.327139957E+03  1.327139957E+03  0.000000000E+00  0.00000E+00  9.000E+00
      21    -1     0     0   511   502  0.000000000E+00  0.000000000E+00 -4.753870373E+02  4.753870373E+02  0.000000000E+00  0.00000E+00  9.000E+00
      25     1     1     2     0     0 -1.030174998E+02  9.544197055E+01  9.151826339E+02  9.342944013E+02  1.250000000E+02  0.00000E+00  9.000E+00
      25     1     1     2     0     0  1.333084771E+02 -1.241107502E+02  3.710095844E+02  4.317959473E+02  1.250000000E+02  0.00000E+00  9.000E+00
      21     1     1     2   511   501 -3.029097735E+01  2.866877969E+01 -4.344392981E+02  4.364366460E+02  5.394796609E-06  0.00000E+00  9.000E+00
#rwgt            1           1   4.1667133355273861E-002           8       54379           0
</event>
<event>
      5   9999  3.79277E-02  5.14246E+01 -1.00000E+00  1.38383E-01
      21    -1     0     0   502   501  0.000000000E+00  0.000000000E+00  3.559614475E+02  3.559614475E+02  0.000000000E+00  0.00000E+00  9.000E+00
      21    -1     0     0   512   502  0.000000000E+00  0.000000000E+00 -5.760767747E+02  5.760767747E+02  0.000000000E+00  0.00000E+00  9.000E+00
      25     1     1     2     0     0  2.521963872E+02 -2.490230665E+02  1.341502419E+02  3.990448506E+02  1.250000000E+02  0.00000E+00  9.000E+00
      25     1     1     2     0     0 -2.009611777E+02  2.534322684E+02 -3.059590118E+02  4.624383489E+02  1.250000000E+02  0.00000E+00  9.000E+00
      21     1     1     2   512   501 -5.123520952E+01 -4.409201962E+00 -4.830655739E+01  7.055502281E+01  9.536743164E-07  0.00000E+00  9.000E+00
#rwgt            1           1   4.4501111630076140E-002           8       54597           0
</event>
<event>
      5   9999  3.79277E-02  4.10196E+01 -1.00000E+00  1.44165E-01
       2    -1     0     0   502     0  0.000000000E+00  0.000000000E+00  7.398789885E+02  7.398789885E+02  0.000000000E+00  0.00000E+00  9.000E+00
      21    -1     0     0   501   502  0.000000000E+00  0.000000000E+00 -3.018591114E+02  3.018591114E+02  0.000000000E+00  0.00000E+00  9.000E+00
      25     1     1     2     0     0  4.218239788E+01  2.332929142E+02 -1.342682252E+02  2.997630645E+02  1.250000000E+02  0.00000E+00  9.000E+00
      25     1     1     2     0     0 -5.187950926E+01 -1.934359952E+02  8.191314792E+01  2.498874377E+02  1.250000000E+02  0.00000E+00  9.000E+00
       2     1     1     2   501     0  9.697111380E+00 -3.985691899E+01  4.903749544E+02  4.920875978E+02  5.394796609E-06  0.00000E+00  9.000E+00
#rwgt            1           1   5.1442300205143558E-002           8       54758           0
</event>
<event>
      5   9999  3.79277E-02  1.09511E+01 -1.00000E+00  1.91304E-01
      21    -1     0     0   502   501  0.000000000E+00  0.000000000E+00  2.164739613E+02  2.164739613E+02  0.000000000E+00  0.00000E+00  9.000E+00
      21    -1     0     0   501   511  0.000000000E+00  0.000000000E+00 -3.650014110E+02  3.650014110E+02  0.000000000E+00  0.00000E+00  9.000E+00
      25     1     1     2     0     0  7.392834850E+01  9.372348791E+01 -3.021852781E+01  1.754641055E+02  1.250000000E+02  0.00000E+00  9.000E+00
      25     1     1     2     0     0 -7.004262887E+01 -8.348492021E+01  9.587108635E+01  1.915514734E+02  1.250000000E+02  0.00000E+00  9.000E+00
      21     1     1     2   502   511 -3.885719627E+00 -1.023856770E+01 -2.141800082E+02  2.144597934E+02  0.000000000E+00  0.00000E+00  9.000E+00
#rwgt            1           1   4.6162925914153906E-002           8       55009           0
</event>
<event>
      5   9999  3.79277E-02  1.17789E+02 -1.00000E+00  1.20712E-01
      21    -1     0     0   502   501  0.000000000E+00  0.000000000E+00  2.910950566E+02  2.910950566E+02  0.000000000E+00  0.00000E+00  9.000E+00
      21    -1     0     0   501   512  0.000000000E+00  0.000000000E+00 -3.337108921E+02  3.337108921E+02  0.000000000E+00  0.00000E+00  9.000E+00
      25     1     1     2     0     0 -1.845697573E+02 -7.970480386E+01  8.376676159E+01  2.511189387E+02  1.250000000E+02  0.00000E+00  9.000E+00
      25     1     1     2     0     0  9.016484779E+01  9.263674515E+00  4.937809089E+01  1.621070982E+02  1.250000000E+02  0.00000E+00  9.000E+00
      21     1     1     2   502   512  9.440490947E+01  7.044112934E+01 -1.757606879E+02  2.115799117E+02  0.000000000E+00  0.00000E+00  9.000E+00
#rwgt            1           1   3.4816337564674942E-002           8       55288           0
</event>
<event>
      5   9999  3.79277E-02  1.83505E+02 -1.00000E+00  1.13026E-01
      21    -1     0     0   502   501  0.000000000E+00  0.000000000E+00  6.576134081E+01  6.576134081E+01  0.000000000E+00  0.00000E+00  9.000E+00
       2    -1     0     0   501     0  0.000000000E+00  0.000000000E+00 -2.485054179E+03  2.485054179E+03  0.000000000E+00  0.00000E+00  9.000E+00
      25     1     1     2     0     0  1.059567420E+02  1.766236709E+02 -2.494969013E+02  3.468377951E+02  1.250000000E+02  0.00000E+00  9.000E+00
      25     1     1     2     0     0 -1.466490111E+02  2.312864159E+00 -8.557003890E+02  8.771313685E+02  1.250000000E+02  0.00000E+00  9.000E+00
       2     1     1     2   502     0  4.069226914E+01 -1.789365351E+02 -1.314095548E+03  1.326846357E+03  0.000000000E+00  0.00000E+00  9.000E+00
#rwgt            1           1   4.5783646208835835E-002           8       55505           0
</event>
<event>
      5   9999  3.79277E-02  5.16032E+01 -1.00000E+00  1.38298E-01
       2    -1     0     0   502     0  0.000000000E+00  0.000000000E+00  5.877226428E+02  5.877226428E+02  0.000000000E+00  0.00000E+00  9.000E+00
      21    -1     0     0   501   502  0.000000000E+00  0.000000000E+00 -9.174468605E+02  9.174468605E+02  0.000000000E+00  0.00000E+00  9.000E+00
      25     1     1     2     0     0 -5.730171633E+01 -1.576592340E+02 -4.421278747E+02  4.891236841E+02  1.250000000E+02  0.00000E+00  9.000E+00
      25     1     1     2     0     0  6.007199848E+01  2.091880322E+02 -4.156107583E+02  4.855157878E+02  1.250000000E+02  0.00000E+00  9.000E+00
       2     1     1     2   501     0 -2.770282143E+00 -5.152879820E+01  5.280144153E+02  5.305300314E+02  7.629394531E-06  0.00000E+00  9.000E+00
#rwgt            1           1   4.9220780682432949E-002           8       55553           0
</event>
<event>
      5   9999  3.79277E-02  6.37391E+01 -1.00000E+00  1.33315E-01
      21    -1     0     0   502   501  0.000000000E+00  0.000000000E+00  2.303311564E+02  2.303311564E+02  0.000000000E+00  0.00000E+00  9.000E+00
      21    -1     0     0   501   511  0.000000000E+00  0.000000000E+00 -6.694201433E+02  6.694201433E+02  0.000000000E+00  0.00000E+00  9.000E+00
      25     1     1     2     0     0  2.698945418E+02  7.116144471E+01 -1.009855304E+01  3.059967249E+02  1.250000000E+02  0.00000E+00  9.000E+00
      25     1     1     2     0     0 -2.168216402E+02 -1.064593832E+02 -1.562445976E+02  3.136600041E+02  1.250000000E+02  0.00000E+00  9.000E+00
      21     1     1     2   502   511 -5.307290161E+01  3.529793850E+01 -2.727458362E+02  2.800945707E+02  3.814697266E-06  0.00000E+00  9.000E+00
#rwgt            1           1   5.0916364214577585E-003           8       55679           0
</event>
<event>
      5   9999  3.79277E-02  3.70194E+01 -1.00000E+00  1.46957E-01
      21    -1     0     0   502   512  0.000000000E+00  0.000000000E+00  1.212987707E+03  1.212987707E+03  0.000000000E+00  0.00000E+00  9.000E+00
      21    -1     0     0   501   502  0.000000000E+00  0.000000000E+00 -6.126098686E+01  6.126098686E+01  0.000000000E+00  0.00000E+00  9.000E+00
      25     1     1     2     0     0  7.118938987E+01  6.592996683E+01  8.535810694E+02  8.681246062E+02  1.250000000E+02  0.00000E+00  9.000E+00
      25     1     1     2     0     0 -3.531020453E+01 -7.504710473E+01  5.438269411E+01  1.595661490E+02  1.250000000E+02  0.00000E+00  9.000E+00
      21     1     1     2   501   512 -3.587918535E+01  9.117137900E+00  2.437629569E+02  2.465579390E+02  4.672030912E-06  0.00000E+00  9.000E+00
#rwgt            1           1   4.8975789980131329E-002           8       55830           0
</event>
<event>
      5   9999  3.79277E-02  2.29611E+01 -1.00000E+00  1.61569E-01
       1    -1     0     0   502     0  0.000000000E+00  0.000000000E+00  2.809715960E+03  2.809715960E+03  0.000000000E+00  0.00000E+00  9.000E+00
      21    -1     0     0   501   502  0.000000000E+00  0.000000000E+00 -2.102853514E+01  2.102853514E+01  0.000000000E+00  0.00000E+00  9.000E+00
      25     1     1     2     0     0 -1.541755418E+02 -9.870629327E+01  1.059926416E+03  1.082858272E+03  1.250000000E+02  0.00000E+00  9.000E+00
      25     1     1     2     0     0  1.316573502E+02  1.031945708E+02  1.158978779E+03  1.177641536E+03  1.250000000E+02  0.00000E+00  9.000E+00
       1     1     1     2   501     0  2.251819166E+01 -4.488277558E+00  5.697822295E+02  5.702446866E+02  7.629394531E-06  0.00000E+00  9.000E+00
#rwgt            1           1   8.1853751606753677E-002           8       55994           0
</event>
<event>
      5   9999 -3.79277E-02  5.01403E+01 -1.00000E+00  1.39006E-01
      21    -1     0     0   502   511  0.000000000E+00  0.000000000E+00  6.609859143E+01  6.609859143E+01  0.000000000E+00  0.00000E+00  9.000E+00
      21    -1     0     0   501   502  0.000000000E+00  0.000000000E+00 -1.045945760E+03  1.045945760E+03  0.000000000E+00  0.00000E+00  9.000E+00
      25     1     1     2     0     0  1.390612932E+02 -9.160755623E+01 -7.538077108E+02  7.820364778E+02  1.250000000E+02  0.00000E+00  9.000E+00
      25     1     1     2     0     0 -9.160987426E+01  7.540855895E+01 -2.200517800E+02  2.795113696E+02  1.250000000E+02  0.00000E+00  9.000E+00
      21     1     1     2   501   511 -4.745141896E+01  1.619899728E+01 -5.987678068E+00  5.049650447E+01  1.892388805E-06  0.00000E+00  9.000E+00
#rwgt            1           1 -0.20396871236802513                8       56150           0
</event>
<event>
      5   9999  3.79277E-02  1.93622E+01 -1.00000E+00  1.67539E-01
      21    -1     0     0   502   501  0.000000000E+00  0.000000000E+00  5.557614635E+01  5.557614635E+01  0.000000000E+00  0.00000E+00  9.000E+00
       3    -1     0     0   501     0  0.000000000E+00  0.000000000E+00 -7.269236525E+02  7.269236525E+02  0.000000000E+00  0.00000E+00  9.000E+00
      25     1     1     2     0     0  5.521986147E+01  3.185934105E+01 -6.339860893E+01  1.539760836E+02  1.250000000E+02  0.00000E+00  9.000E+00
      25     1     1     2     0     0 -6.120532782E+01 -1.344548494E+01 -5.202851327E+02  5.387471508E+02  1.250000000E+02  0.00000E+00  9.000E+00
       3     1     1     2   502     0  5.985466355E+00 -1.841385611E+01 -8.766376453E+01  8.977656440E+01  1.907348633E-06  0.00000E+00  9.000E+00
#rwgt            1           1   4.3062874574858939E-002           8       56263           0
</event>
<event>
      5   9999  3.79277E-02  3.42012E+01 -1.00000E+00  1.49189E-01
      21    -1     0     0   502   501  0.000000000E+00  0.000000000E+00  7.779474193E+02  7.779474193E+02  0.000000000E+00  0.00000E+00  9.000E+00
      21    -1     0     0   511   502  0.000000000E+00  0.000000000E+00 -8.516819011E+02  8.516819011E+02  0.000000000E+00  0.00000E+00  9.000E+00
      25     1     1     2     0     0 -1.028577783E+02 -4.485149878E+01  6.986957331E+02  7.186042770E+02  1.250000000E+02  0.00000E+00  9.000E+00
      25     1     1     2     0     0  7.030732300E+01  3.435435888E+01 -9.982534241E+00  1.478106648E+02  1.250000000E+02  0.00000E+00  9.000E+00
      21     1     1     2   511   501  3.255045534E+01  1.049713990E+01 -7.624476806E+02  7.632143787E+02  0.000000000E+00  0.00000E+00  9.000E+00
#rwgt            1           1   2.7995546162991648E-002           8       56474           0
</event>
<event>
      5   9999  3.79277E-02  2.72895E+01 -1.00000E+00  1.55952E-01
      21    -1     0     0   502   512  0.000000000E+00  0.000000000E+00  1.402168500E+02  1.402168500E+02  0.000000000E+00  0.00000E+00  9.000E+00
      21    -1     0     0   501   502  0.000000000E+00  0.000000000E+00 -3.398124423E+02  3.398124423E+02  0.000000000E+00  0.00000E+00  9.000E+00
      25     1     1     2     0     0 -9.214696417E+01 -8.608359003E+01 -1.861998104E+02  2.572874207E+02  1.250000000E+02  0.00000E+00  9.000E+00
      25     1     1     2     0     0  1.192742847E+02  8.311324297E+01 -2.448785095E+01  1.932843009E+02  1.250000000E+02  0.00000E+00  9.000E+00
      21     1     1     2   501   512 -2.712732049E+01  2.970347061E+00  1.109206897E+01  2.945757072E+01  5.591411304E-07  0.00000E+00  9.000E+00
#rwgt            1           1   3.4485058653962605E-002           8       56731           0
</event>
<event>
      5   9999  3.79277E-02  3.91523E+01 -1.00000E+00  1.45419E-01
      21    -1     0     0   511   501  0.000000000E+00  0.000000000E+00  2.436566138E+02  2.436566138E+02  0.000000000E+00  0.00000E+00  9.000E+00
      21    -1     0     0   501   502  0.000000000E+00  0.000000000E+00 -3.596981963E+02  3.596981963E+02  0.000000000E+00  0.00000E+00  9.000E+00
      25     1     1     2     0     0 -3.822351034E+01  1.424142350E+02 -8.212158552E+01  2.100281073E+02  1.250000000E+02  0.00000E+00  9.000E+00
      25     1     1     2     0     0  3.730701265E+00 -1.609384826E+02 -1.613929796E+02  2.599765512E+02  1.250000000E+02  0.00000E+00  9.000E+00
      21     1     1     2   511   502  3.449280908E+01  1.852424764E+01  1.274729826E+02  1.333501516E+02  1.907348633E-06  0.00000E+00  9.000E+00
#rwgt            1           1   3.8806044825317007E-002           8       56841           0
</event>
<event>
      5   9999  3.79277E-02  2.14152E+01 -1.00000E+00  1.63956E-01
      21    -1     0     0   502   512  0.000000000E+00  0.000000000E+00  2.921908282E+02  2.921908282E+02  0.000000000E+00  0.00000E+00  9.000E+00
      21    -1     0     0   501   502  0.000000000E+00  0.000000000E+00 -2.750814012E+02  2.750814012E+02  0.000000000E+00  0.00000E+00  9.000E+00
      25     1     1     2     0     0 -1.623953340E+02 -1.833293272E+02  1.372884738E+01  2.753095857E+02  1.250000000E+02  0.00000E+00  9.000E+00
      25     1     1     2     0     0  1.410503731E+02  1.850620136E+02 -1.381575009E+01  2.644976967E+02  1.250000000E+02  0.00000E+00  9.000E+00
      21     1     1     2   501   512  2.134496094E+01 -1.732686338E+00  1.719632965E+01  2.746494699E+01  4.129530925E-07  0.00000E+00  9.000E+00
#rwgt            1           1   3.3828953405351206E-002           8       56955           0
</event>
<event>
      5   9999  3.79277E-02  3.89186E+01 -1.00000E+00  1.45582E-01
      21    -1     0     0   502   501  0.000000000E+00  0.000000000E+00  1.768205054E+03  1.768205054E+03  0.000000000E+00  0.00000E+00  9.000E+00
      21    -1     0     0   511   502  0.000000000E+00  0.000000000E+00 -3.257570475E+01  3.257570475E+01  0.000000000E+00  0.00000E+00  9.000E+00
      25     1     1     2     0     0  6.026209289E+01 -1.232465224E+02  3.405998838E+02  3.878846555E+02  1.250000000E+02  0.00000E+00  9.000E+00
      25     1     1     2     0     0 -7.783990300E+01  8.852368053E+01  1.279570665E+03  1.291054445E+03  1.250000000E+02  0.00000E+00  9.000E+00
      21     1     1     2   511   501  1.757781011E+01  3.472284189E+01  1.154588010E+02  1.218416591E+02  2.336015456E-06  0.00000E+00  9.000E+00
#rwgt            1           1   4.0241396848904307E-002           8       57176           0
</event>
<event>
      5   9999  3.79277E-02  3.54286E+01 -1.00000E+00  1.48187E-01
      21    -1     0     0   502   501  0.000000000E+00  0.000000000E+00  1.440687781E+02  1.440687781E+02  0.000000000E+00  0.00000E+00  9.000E+00
      21    -1     0     0   501   512  0.000000000E+00  0.000000000E+00 -2.314690143E+02  2.314690143E+02  0.000000000E+00  0.00000E+00  9.000E+00
      25     1     1     2     0     0  9.056632882E+01  1.320939851E+01  1.433062127E+01  1.555863581E+02  1.250000000E+02  0.00000E+00  9.000E+00
      25     1     1     2     0     0 -8.658540782E+01 -4.841358596E+01 -8.281996380E+01  1.797916977E+02  1.250000000E+02  0.00000E+00  9.000E+00
      21     1     1     2   502   512 -3.980921001E+00  3.520418745E+01 -1.891089371E+01  4.015973664E+01  4.768371582E-07  0.00000E+00  9.000E+00
#rwgt            1           1   3.3523536043431286E-002           8       57293           0
</event>
<event>
      5   9999  3.79277E-02  3.38337E+01 -1.00000E+00  1.49499E-01
      21    -1     0     0   502   501  0.000000000E+00  0.000000000E+00  3.216529694E+02  3.216529694E+02  0.000000000E+00  0.00000E+00  9.000E+00
      21    -1     0     0   501   511  0.000000000E+00  0.000000000E+00 -2.314101752E+02  2.314101752E+02  0.000000000E+00  0.00000E+00  9.000E+00
      25     1     1     2     0     0 -4.727721900E+00 -1.182197175E+00 -9.598127435E+01  1.576742020E+02  1.250000000E+02  0.00000E+00  9.000E+00
      25     1     1     2     0     0 -2.688415232E+01  1.324060842E+01  2.732733700E+02  3.019957054E+02  1.250000000E+02  0.00000E+00  9.000E+00
      21     1     1     2   502   511  3.161187422E+01 -1.205841124E+01 -8.704930145E+01  9.339323721E+01  1.348699152E-06  0.00000E+00  9.000E+00
#rwgt            1           1   4.2144932473395083E-002           8       57385           0
</event>
<event>
      5   9999  3.79277E-02  7.62232E+01 -1.00000E+00  1.29374E-01
      -1    -1     0     0     0   501  0.000000000E+00  0.000000000E+00  9.873366158E+02  9.873366158E+02  0.000000000E+00  0.00000E+00  9.000E+00
      21    -1     0     0   501   502  0.000000000E+00  0.000000000E+00 -2.243974411E+02  2.243974411E+02  0.000000000E+00  0.00000E+00  9.000E+00
      25     1     1     2     0     0  9.598147786E+01  1.610033299E+02  2.101214596E+01  2.262764385E+02  1.250000000E+02  0.00000E+00  9.000E+00
      25     1     1     2     0     0 -7.158367310E+01 -8.879027562E+01 -6.028629547E+01  1.796312131E+02  1.250000000E+02  0.00000E+00  9.000E+00
      -1     1     1     2     0   502 -2.439780476E+01 -7.221305427E+01  8.022133241E+02  8.058264053E+02  0.000000000E+00  0.00000E+00  9.000E+00
#rwgt            1           1   3.1962973580729810E-002           8       57513           0
</event>
<event>
      5   9999  3.79277E-02  2.91449E+01 -1.00000E+00  1.53917E-01
      21    -1     0     0   502   501  0.000000000E+00  0.000000000E+00  3.001974150E+02  3.001974150E+02  0.000000000E+00  0.00000E+00  9.000E+00
      21    -1     0     0   501   511  0.000000000E+00  0.000000000E+00 -1.681458032E+02  1.681458032E+02  0.000000000E+00  0.00000E+00  9.000E+00
      25     1     1     2     0     0 -5.784217562E+01  1.409214762E+02  9.746007174E+00  1.972930926E+02  1.250000000E+02  0.00000E+00  9.000E+00
      25     1     1     2     0     0  7.136865932E+01 -1.151056016E+02  1.446796540E+02  2.343074632E+02  1.250000000E+02  0.00000E+00  9.000E+00
      21     1     1     2   502   511 -1.352648370E+01 -2.581587463E+01 -2.237404945E+01  3.674266230E+01  0.000000000E+00  0.00000E+00  9.000E+00
#rwgt            1           1   3.7067744329083871E-002           8       57717           0
</event>
<event>
      5   9999  3.79277E-02  7.64799E+01 -1.00000E+00  1.29303E-01
      21    -1     0     0   512   501  0.000000000E+00  0.000000000E+00  5.322205226E+02  5.322205226E+02  0.000000000E+00  0.00000E+00  9.000E+00
      21    -1     0     0   501   502  0.000000000E+00  0.000000000E+00 -4.028364954E+02  4.028364954E+02  0.000000000E+00  0.00000E+00  9.000E+00
      25     1     1     2     0     0  8.793286051E+01  2.402046835E+02 -2.889797796E+02  4.056658612E+02  1.250000000E+02  0.00000E+00  9.000E+00
      25     1     1     2     0     0 -1.809412233E+01 -2.090322224E+02  3.501548729E+02  4.269136942E+02  1.250000000E+02  0.00000E+00  9.000E+00
      21     1     1     2   512   502 -6.983873818E+01 -3.117246114E+01  6.820893395E+01  1.024774627E+02  1.348699152E-06  0.00000E+00  9.000E+00
#rwgt            1           1   4.3113479411486300E-002           8       57922           0
</event>
<event>
      5   9999  3.79277E-02  8.92226E+01 -1.00000E+00  1.26097E-01
      21    -1     0     0   502   511  0.000000000E+00  0.000000000E+00  7.340642967E+02  7.340642967E+02  0.000000000E+00  0.00000E+00  9.000E+00
      21    -1     0     0   501   502  0.000000000E+00  0.000000000E+00 -1.836962396E+02  1.836962396E+02  0.000000000E+00  0.00000E+00  9.000E+00
      25     1     1     2     0     0  1.856806061E+02 -1.182022230E+02  2.776940737E+02  3.757499854E+02  1.250000000E+02  0.00000E+00  9.000E+00
      25     1     1     2     0     0 -2.377348740E+02  1.906661225E+02  9.438758291E+01  3.426447962E+02  1.250000000E+02  0.00000E+00  9.000E+00
      21     1     1     2   501   511  5.205426787E+01 -7.246389945E+01  1.782864005E+02  1.993657547E+02  1.907348633E-06  0.00000E+00  9.000E+00
#rwgt            1           1   3.3639904059750918E-002           8       58095           0
</event>
<event>
      5   9999  3.79277E-02  9.21446E+01 -1.00000E+00  1.25447E-01
      21    -1     0     0   502   501  0.000000000E+00  0.000000000E+00  1.032670268E+03  1.032670268E+03  0.000000000E+00  0.00000E+00  9.000E+00
      21    -1     0     0   512   502  0.000000000E+00  0.000000000E+00 -1.677489739E+02  1.677489739E+02  0.000000000E+00  0.00000E+00  9.000E+00
      25     1     1     2     0     0 -1.116663633E+01  8.422080142E+00  8.379742283E+01  1.511377956E+02  1.250000000E+02  0.00000E+00  9.000E+00
      25     1     1     2     0     0 -5.167952475E+00 -9.910725753E+01  8.913996157E+02  9.055756352E+02  1.250000000E+02  0.00000E+00  9.000E+00
      21     1     1     2   512   501  1.633458880E+01  9.068517739E+01 -1.102757447E+02  1.437058108E+02  3.015782986E-06  0.00000E+00  9.000E+00
#rwgt            1           1   6.0880668116113035E-002           8       58251           0
</event>
<event>
      5   9999 -3.79277E-02  4.27279E+00 -1.00000E+00  2.56897E-01
      21    -1     0     0   511   501  0.000000000E+00  0.000000000E+00  8.812463019E+02  8.812463019E+02  0.000000000E+00  0.00000E+00  9.000E+00
      21    -1     0     0   501   502  0.000000000E+00  0.000000000E+00 -5.926551161E+01  5.926551161E+01  0.000000000E+00  0.00000E+00  9.000E+00
      25     1     1     2     0     0  7.364954235E+01  1.593522645E+02  5.314890610E+02  5.735181089E+02  1.250000000E+02  0.00000E+00  9.000E+00
      25     1     1     2     0     0 -7.477853292E+01 -1.634731994E+02  2.784994899E+02  3.542630122E+02  1.250000000E+02  0.00000E+00  9.000E+00
      21     1     1     2   511   502  1.128990564E+00  4.120934888E+00  1.199223938E+01  1.273069241E+01  0.000000000E+00  0.00000E+00  9.000E+00
#rwgt            1           1 -0.33584358243929563                8       58367           0
</event>
<event>
      5   9999  3.79277E-02  1.17943E+02 -1.00000E+00  1.20688E-01
      21    -1     0     0   502   501  0.000000000E+00  0.000000000E+00  7.023625180E+01  7.023625180E+01  0.000000000E+00  0.00000E+00  9.000E+00
       1    -1     0     0   501     0  0.000000000E+00  0.000000000E+00 -1.205185083E+03  1.205185083E+03  0.000000000E+00  0.00000E+00  9.000E+00
      25     1     1     2     0     0  3.207852785E+01 -6.272728080E+01 -6.919600104E+02  7.066805499E+02  1.250000000E+02  0.00000E+00  9.000E+00
      25     1     1     2     0     0  1.288725742E+01  1.717619164E+02 -1.735331057E+02  2.746033068E+02  1.250000000E+02  0.00000E+00  9.000E+00
       1     1     1     2   502     0 -4.496578527E+01 -1.090346356E+02 -2.694557149E+02  2.941374779E+02  3.814697266E-06  0.00000E+00  9.000E+00
#rwgt            1           1   5.2647811275946567E-002           8       58910           0
</event>
<event>
      5   9999  3.79277E-02  5.42491E+01 -1.00000E+00  1.37084E-01
      21    -1     0     0   502   511  0.000000000E+00  0.000000000E+00  2.151106962E+02  2.151106962E+02  0.000000000E+00  0.00000E+00  9.000E+00
      21    -1     0     0   501   502  0.000000000E+00  0.000000000E+00 -5.286486791E+02  5.286486791E+02  0.000000000E+00  0.00000E+00  9.000E+00
      25     1     1     2     0     0 -8.685275548E+01  1.587728782E+02 -3.682740741E+02  4.289557339E+02  1.250000000E+02  0.00000E+00  9.000E+00
      25     1     1     2     0     0  1.405642337E+02 -1.663911152E+02  6.540992921E+01  2.595144810E+02  1.250000000E+02  0.00000E+00  9.000E+00
      21     1     1     2   501   511 -5.371147827E+01  7.618237012E+00 -1.067383797E+01  5.528916033E+01  5.057621821E-07  0.00000E+00  9.000E+00
#rwgt            2          11   3.5841420413184381E-003           8       59258           0
</event>
<event>
      5   9999  3.79277E-02  1.04066E+02 -1.00000E+00  1.23054E-01
      21    -1     0     0   502   501  0.000000000E+00  0.000000000E+00  2.645410426E+02  2.645410426E+02  0.000000000E+00  0.00000E+00  9.000E+00
       1    -1     0     0   501     0  0.000000000E+00  0.000000000E+00 -1.665942752E+03  1.665942752E+03  0.000000000E+00  0.00000E+00  9.000E+00
      25     1     1     2     0     0  3.298410162E+02 -3.497901570E+00 -1.793841271E+02  3.957410723E+02  1.250000000E+02  0.00000E+00  9.000E+00
      25     1     1     2     0     0 -2.920196174E+02  1.004475508E+02 -2.595492725E+01  3.341613767E+02  1.250000000E+02  0.00000E+00  9.000E+00
       1     1     1     2   502     0 -3.782139879E+01 -9.694964924E+01 -1.196062655E+03  1.200581346E+03  2.157918644E-05  0.00000E+00  9.000E+00
#rwgt            1           1   3.8176030810537082E-002           8       59323           0
</event>
<event>
      5   9999  3.79277E-02  1.02547E+01 -1.00000E+00  1.94503E-01
      21    -1     0     0   502   511  0.000000000E+00  0.000000000E+00  2.684884378E+02  2.684884378E+02  0.000000000E+00  0.00000E+00  9.000E+00
      21    -1     0     0   501   502  0.000000000E+00  0.000000000E+00 -2.506163116E+02  2.506163116E+02  0.000000000E+00  0.00000E+00  9.000E+00
      25     1     1     2     0     0  9.297903882E+01 -8.151306395E+01  8.442602501E+01  1.950441872E+02  1.250000000E+02  0.00000E+00  9.000E+00
      25     1     1     2     0     0 -1.018994783E+02  8.657127092E+01 -1.520483280E+02  2.379533203E+02  1.250000000E+02  0.00000E+00  9.000E+00
      21     1     1     2   501   511  8.920439428E+00 -5.058206975E+00  8.549442911E+01  8.610724189E+01  9.536743164E-07  0.00000E+00  9.000E+00
#rwgt            1           1   3.9628069923210794E-002           8       59501           0
</event>
<event>
      5   9999  3.79277E-02  8.47689E+01 -1.00000E+00  1.27144E-01
      21    -1     0     0   502   501  0.000000000E+00  0.000000000E+00  4.174209146E+02  4.174209146E+02  0.000000000E+00  0.00000E+00  9.000E+00
      21    -1     0     0   512   502  0.000000000E+00  0.000000000E+00 -1.855556015E+02  1.855556015E+02  0.000000000E+00  0.00000E+00  9.000E+00
      25     1     1     2     0     0  8.351855973E+01 -2.496272336E+01  2.602649120E+02  3.015979306E+02  1.250000000E+02  0.00000E+00  9.000E+00
      25     1     1     2     0     0 -1.594244264E+02  6.269959488E+01 -4.004117348E+01  2.158139998E+02  1.250000000E+02  0.00000E+00  9.000E+00
      21     1     1     2   512   501  7.590586663E+01 -3.773687153E+01  1.164157471E+01  8.556458569E+01  6.743495762E-07  0.00000E+00  9.000E+00
#rwgt            1           1   4.3847648764035060E-002           8       59685           0
</event>
<event>
      5   9999  3.79277E-02  8.94767E+01 -1.00000E+00  1.26040E-01
      21    -1     0     0   502   501  0.000000000E+00  0.000000000E+00  6.547094327E+02  6.547094327E+02  0.000000000E+00  0.00000E+00  9.000E+00
      21    -1     0     0   501   511  0.000000000E+00  0.000000000E+00 -5.386745593E+02  5.386745593E+02  0.000000000E+00  0.00000E+00  9.000E+00
      25     1     1     2     0     0  3.543702956E+02 -3.075477801E+02  9.452559117E+01  4.946958973E+02  1.250000000E+02  0.00000E+00  9.000E+00
      25     1     1     2     0     0 -3.247902815E+02  2.231019266E+02  2.291066881E+02  4.726288937E+02  1.250000000E+02  0.00000E+00  9.000E+00
      21     1     1     2   502   511 -2.958001411E+01  8.444585352E+01 -2.075974059E+02  2.260592010E+02  2.697398305E-06  0.00000E+00  9.000E+00
#rwgt            1           1  0.11573837812179116                8       59855           0
</event>
<event>
      5   9999  3.79277E-02  7.06923E+01 -1.00000E+00  1.31005E-01
      21    -1     0     0   502   501  0.000000000E+00  0.000000000E+00  2.988548607E+02  2.988548607E+02  0.000000000E+00  0.00000E+00  9.000E+00
      21    -1     0     0   512   502  0.000000000E+00  0.000000000E+00 -3.877997465E+02  3.877997465E+02  0.000000000E+00  0.00000E+00  9.000E+00
      25     1     1     2     0     0  2.199657826E+02 -1.976826030E+02 -4.385811541E+00  3.211037097E+02  1.250000000E+02  0.00000E+00  9.000E+00
      25     1     1     2     0     0 -2.221206313E+02  1.270231914E+02 -7.220335620E+01  2.937869818E+02  1.250000000E+02  0.00000E+00  9.000E+00
      21     1     1     2   512   501  2.154848737E+00  7.065941161E+01 -1.235571803E+01  7.176391566E+01  8.259061849E-07  0.00000E+00  9.000E+00
#rwgt            2          11   3.9773041972253342E-003           8       60061           0
</event>
<event>
      5   9999  3.79277E-02  8.07743E+01 -1.00000E+00  1.28147E-01
      21    -1     0     0   502   511  0.000000000E+00  0.000000000E+00  7.186422614E+01  7.186422614E+01  0.000000000E+00  0.00000E+00  9.000E+00
      21    -1     0     0   501   502  0.000000000E+00  0.000000000E+00 -1.643203540E+03  1.643203540E+03  0.000000000E+00  0.00000E+00  9.000E+00
      25     1     1     2     0     0 -1.445509852E+01  2.809230151E+02 -1.101985659E+03  1.144169604E+03  1.250000000E+02  0.00000E+00  9.000E+00
      25     1     1     2     0     0  3.223537563E+01 -2.021299284E+02 -3.888017749E+02  4.568232126E+02  1.250000000E+02  0.00000E+00  9.000E+00
      21     1     1     2   501   511 -1.778027711E+01 -7.879308671E+01 -8.055188066E+01  1.140749501E+02  1.651812370E-06  0.00000E+00  9.000E+00
#rwgt            1           1   8.2455478148108510E-002           8       60111           0
</event>
<event>
      5   9999  3.79277E-02  4.34109E+01 -1.00000E+00  1.42670E-01
      21    -1     0     0   512   501  0.000000000E+00  0.000000000E+00  8.348656772E+01  8.348656772E+01  0.000000000E+00  0.00000E+00  9.000E+00
      21    -1     0     0   501   502  0.000000000E+00  0.000000000E+00 -4.103874330E+02  4.103874330E+02  0.000000000E+00  0.00000E+00  9.000E+00
      25     1     1     2     0     0  1.032357852E+02 -1.760297676E+00 -1.038631046E+02  1.925442040E+02  1.250000000E+02  0.00000E+00  9.000E+00
      25     1     1     2     0     0 -6.702499513E+01 -2.218298356E+01 -2.128520281E+02  2.567399864E+02  1.250000000E+02  0.00000E+00  9.000E+00
      21     1     1     2   512   502 -3.621079009E+01  2.394328124E+01 -1.018573252E+01  4.458981030E+01  7.725644944E-07  0.00000E+00  9.000E+00
#rwgt            2          11   1.5361110194312860E-003           8       60243           0
</event>
<event>
      5   9999  3.79277E-02  4.41794E+01 -1.00000E+00  1.42213E-01
      21    -1     0     0   502   501  0.000000000E+00  0.000000000E+00  8.175015947E+01  8.175015947E+01  0.000000000E+00  0.00000E+00  9.000E+00
      21    -1     0     0   501   511  0.000000000E+00  0.000000000E+00 -1.240647069E+03  1.240647069E+03  0.000000000E+00  0.00000E+00  9.000E+00
      25     1     1     2     0     0 -2.563539556E+01  2.281696144E+02 -3.075144354E+02  4.036194674E+02  1.250000000E+02  0.00000E+00  9.000E+00
      25     1     1     2     0     0 -2.898984677E+00 -2.618980329E+02 -6.385134140E+02  7.013724856E+02  1.250000000E+02  0.00000E+00  9.000E+00
      21     1     1     2   502   511  2.853438024E+01  3.372841848E+01 -2.128690606E+02  2.174052760E+02  0.000000000E+00  0.00000E+00  9.000E+00
#rwgt            1           1   2.9611627399965135E-002           8       60368           0
</event>
<event>
      5   9999 -3.79277E-02  4.24203E+01 -1.00000E+00  1.43275E-01
      21    -1     0     0   502   512  0.000000000E+00  0.000000000E+00  6.259664713E+02  6.259664713E+02  0.000000000E+00  0.00000E+00  9.000E+00
      21    -1     0     0   501   502  0.000000000E+00  0.000000000E+00 -1.586214152E+02  1.586214152E+02  0.000000000E+00  0.00000E+00  9.000E+00
      25     1     1     2     0     0  1.147321581E+02 -8.563358504E+01  2.210660571E+02  2.915334982E+02  1.250000000E+02  0.00000E+00  9.000E+00
      25     1     1     2     0     0 -9.922049288E+01  1.251161312E+02 -3.740970649E+01  2.062116355E+02  1.250000000E+02  0.00000E+00  9.000E+00
      21     1     1     2   501   512 -1.551166518E+01 -3.948254611E+01  2.836887055E+02  2.868427528E+02  6.607249480E-06  0.00000E+00  9.000E+00
#rwgt            1           1  -1.4931882796819651E-002           8       60497           0
</event>
<event>
      5   9999  3.79277E-02  1.85490E+01 -1.00000E+00  1.69114E-01
      21    -1     0     0   502   511  0.000000000E+00  0.000000000E+00  8.550934744E+02  8.550934744E+02  0.000000000E+00  0.00000E+00  9.000E+00
      21    -1     0     0   501   502  0.000000000E+00  0.000000000E+00 -2.146817326E+02  2.146817326E+02  0.000000000E+00  0.00000E+00  9.000E+00
      25     1     1     2     0     0 -1.972000933E+02 -2.271390491E+02  2.139677165E+02  3.897270944E+02  1.250000000E+02  0.00000E+00  9.000E+00
      25     1     1     2     0     0  1.801469898E+02  2.344368595E+02  7.698725866E+01  3.300994048E+02  1.250000000E+02  0.00000E+00  9.000E+00
      21     1     1     2   501   511  1.705310346E+01 -7.297810413E+00  3.494567666E+02  3.499487078E+02  3.814697266E-06  0.00000E+00  9.000E+00
#rwgt            1           1   4.0210608250349396E-002           8       60645           0
</event>
<event>
      5   9999  3.79277E-02  1.29096E+02 -1.00000E+00  1.19037E-01
      21    -1     0     0   502   501  0.000000000E+00  0.000000000E+00  1.779098569E+03  1.779098569E+03  0.000000000E+00  0.00000E+00  9.000E+00
      21    -1     0     0   512   502  0.000000000E+00  0.000000000E+00 -4.299438565E+01  4.299438565E+01  0.000000000E+00  0.00000E+00  9.000E+00
      25     1     1     2     0     0 -8.036907321E+01  1.330207644E+02  1.188673535E+03  1.205289793E+03  1.250000000E+02  0.00000E+00  9.000E+00
      25     1     1     2     0     0  9.157284615E+01 -4.411836644E+00  2.913415316E+02  3.300150580E+02  1.250000000E+02  0.00000E+00  9.000E+00
      21     1     1     2   512   501 -1.120377294E+01 -1.286089278E+02  2.560891167E+02  2.867881039E+02  5.394796609E-06  0.00000E+00  9.000E+00
#rwgt            1           1  0.16361609412673289                8       60860           0
</event>
<event>
      5   9999  3.79277E-02  2.31178E+01 -1.00000E+00  1.61340E-01
      21    -1     0     0   502   501  0.000000000E+00  0.000000000E+00  1.087709887E+02  1.087709887E+02  0.000000000E+00  0.00000E+00  9.000E+00
       2    -1     0     0   501     0  0.000000000E+00  0.000000000E+00 -8.226548261E+02  8.226548261E+02  0.000000000E+00  0.00000E+00  9.000E+00
      25     1     1     2     0     0 -3.691916392E+01  8.531901451E+01 -3.168985099E+02  3.531175788E+02  1.250000000E+02  0.00000E+00  9.000E+00
      25     1     1     2     0     0  1.706694434E+01 -9.716471350E+01  2.017077204E+01  1.605120624E+02  1.250000000E+02  0.00000E+00  9.000E+00
       2     1     1     2   502     0  1.985221958E+01  1.184569898E+01 -4.171560996E+02  4.177961735E+02  7.629394531E-06  0.00000E+00  9.000E+00
#rwgt            1           1   4.2379079865923125E-002           8       60916           0
</event>
<event>
      5   9999  3.79277E-02  3.84780E+01 -1.00000E+00  1.45893E-01
      21    -1     0     0   502   501  0.000000000E+00  0.000000000E+00  5.818432437E+02  5.818432437E+02  0.000000000E+00  0.00000E+00  9.000E+00
      21    -1     0     0   501   511  0.000000000E+00  0.000000000E+00 -1.469590725E+02  1.469590725E+02  0.000000000E+00  0.00000E+00  9.000E+00
      25     1     1     2     0     0  6.901624269E+01  1.629864987E+01  4.670756251E+02  4.886855096E+02  1.250000000E+02  0.00000E+00  9.000E+00
      25     1     1     2     0     0 -7.161623114E+01  2.209142851E+01  4.611481797E+01  1.528675643E+02  1.250000000E+02  0.00000E+00  9.000E+00
      21     1     1     2   502   511  2.599988450E+00 -3.839007838E+01 -7.830627189E+01  8.724924226E+01  1.348699152E-06  0.00000E+00  9.000E+00
#rwgt            1           1   3.8240846659831587E-002           8       61063           0
</event>
<event>
      5   9999  3.79277E-02  1.03792E+02 -1.00000E+00  1.23105E-01
      21    -1     0     0   502   501  0.000000000E+00  0.000000000E+00  1.982223037E+02  1.982223037E+02  0.000000000E+00  0.00000E+00  9.000E+00
      21    -1     0     0   512   502  0.000000000E+00  0.000000000E+00 -8.241049273E+02  8.241049273E+02  0.000000000E+00  0.00000E+00  9.000E+00
      25     1     1     2     0     0 -2.581478089E+02 -1.865107132E+02 -2.440910559E+02  4.202760770E+02  1.250000000E+02  0.00000E+00  9.000E+00
      25     1     1     2     0     0  3.221538375E+02  1.048036995E+02 -2.833172474E+02  4.589777479E+02  1.250000000E+02  0.00000E+00  9.000E+00
      21     1     1     2   512   501 -6.400602855E+01  8.170701366E+01 -9.847432026E+01  1.430734061E+02  2.336015456E-06  0.00000E+00  9.000E+00
#rwgt            1           1   2.9356910286225727E-002           8       61342           0
</event>
<event>
      5   9999 -7.29344E-02  6.25488E+01 -1.00000E+00  1.33745E-01
      21    -1     0     0   502   511  0.000000000E+00  0.000000000E+00  6.547842954E+02  6.547842954E+02  0.000000000E+00  0.00000E+00  9.000E+00
      21    -1     0     0   501   502  0.000000000E+00  0.000000000E+00 -8.775632217E+02  8.775632217E+02  0.000000000E+00  0.00000E+00  9.000E+00
      25     1     1     2     0     0  3.242732050E+02 -1.220727080E+02  4.259765817E+01  3.708023975E+02  1.250000000E+02  0.00000E+00  9.000E+00
      25     1     1     2     0     0 -3.596469435E+02  1.736581370E+02 -6.493460918E+02  7.725143491E+02  1.250000000E+02  0.00000E+00  9.000E+00
      21     1     1     2   501   511  3.537373850E+01 -5.158542893E+01  3.839695073E+02  3.890307705E+02  0.000000000E+00  0.00000E+00  9.000E+00
#rwgt            1           1  -2.3964388727431056                8       61468           0
</event>
<event>
      5   9999 -3.79277E-02  1.14870E+02 -1.00000E+00  1.21179E-01
      21    -1     0     0   502   501  0.000000000E+00  0.000000000E+00  4.549805023E+01  4.549805023E+01  0.000000000E+00  0.00000E+00  9.000E+00
      21    -1     0     0   501   512  0.000000000E+00  0.000000000E+00 -2.215454816E+03  2.215454816E+03  0.000000000E+00  0.00000E+00  9.000E+00
      25     1     1     2     0     0 -2.649863444E+02 -1.803544589E+01 -1.053520565E+03  1.093651508E+03  1.250000000E+02  0.00000E+00  9.000E+00
      25     1     1     2     0     0  1.664434935E+02 -4.099404004E+01 -5.535215319E+02  5.927858249E+02  1.250000000E+02  0.00000E+00  9.000E+00
      21     1     1     2   502   512  9.854285092E+01  5.902948593E+01 -5.629146690E+02  5.745155335E+02  7.629394531E-06  0.00000E+00  9.000E+00
#rwgt            1           1  -9.5223904659141448E-002           8       61708           0
</event>
<event>
      5   9999  3.79277E-02  1.96355E+01 -1.00000E+00  1.67031E-01
      21    -1     0     0   511   501  0.000000000E+00  0.000000000E+00  3.057428431E+03  3.057428431E+03  0.000000000E+00  0.00000E+00  9.000E+00
      21    -1     0     0   501   502  0.000000000E+00  0.000000000E+00 -1.703779186E+02  1.703779186E+02  0.000000000E+00  0.00000E+00  9.000E+00
      25     1     1     2     0     0  4.939113148E+01  1.408400007E+02  8.427824973E+01  2.121396075E+02  1.250000000E+02  0.00000E+00  9.000E+00
      25     1     1     2     0     0 -3.110915218E+01 -1.336760622E+02 -2.545026629E+01  1.873760524E+02  1.250000000E+02  0.00000E+00  9.000E+00
      21     1     1     2   511   502 -1.828197930E+01 -7.163938523E+00  2.828222529E+03  2.828290690E+03  5.285799584E-05  0.00000E+00  9.000E+00
#rwgt            1           1   3.5283397063824037E-002           8       61866           0
</event>
<event>
      5   9999  3.79277E-02  3.17203E+02 -1.00000E+00  1.04811E-01
      21    -1     0     0   502   501  0.000000000E+00  0.000000000E+00  8.378379784E+02  8.378379784E+02  0.000000000E+00  0.00000E+00  9.000E+00
      21    -1     0     0   501   512  0.000000000E+00  0.000000000E+00 -4.984482078E+02  4.984482078E+02  0.000000000E+00  0.00000E+00  9.000E+00
      25     1     1     2     0     0 -1.594157115E+02  2.009418360E+02  4.803147635E+02  5.586754537E+02  1.250000000E+02  0.00000E+00  9.000E+00
      25     1     1     2     0     0 -9.182706052E+01 -7.306036170E+00  2.375444338E+02  2.837920810E+02  1.250000000E+02  0.00000E+00  9.000E+00
      21     1     1     2   502   512  2.512427720E+02 -1.936357999E+02 -3.784694268E+02  4.938186514E+02  0.000000000E+00  0.00000E+00  9.000E+00
#rwgt            2          11   6.4205714110343592E-004           8       62324           0
</event>
<event>
      5   9999  3.79277E-02  9.08061E+01 -1.00000E+00  1.25742E-01
      21    -1     0     0   502   501  0.000000000E+00  0.000000000E+00  2.208058143E+02  2.208058143E+02  0.000000000E+00  0.00000E+00  9.000E+00
       2    -1     0     0   501     0  0.000000000E+00  0.000000000E+00 -5.020711393E+02  5.020711393E+02  0.000000000E+00  0.00000E+00  9.000E+00
      25     1     1     2     0     0 -7.645460123E+01 -4.951423829E+01  7.778661042E+01  1.731263198E+02  1.250000000E+02  0.00000E+00  9.000E+00
      25     1     1     2     0     0  1.666106838E+02  6.036005248E+01 -4.321901598E+01  2.211229053E+02  1.250000000E+02  0.00000E+00  9.000E+00
       2     1     1     2   502     0 -9.015608261E+01 -1.084581419E+01 -3.158329195E+02  3.286277285E+02  3.814697266E-06  0.00000E+00  9.000E+00
#rwgt            1           1   4.2114342533654751E-002           8       62464           0
</event>
<event>
      5   9999  3.79277E-02  2.39553E+01 -1.00000E+00  1.60152E-01
      21    -1     0     0   502   511  0.000000000E+00  0.000000000E+00  5.765820290E+01  5.765820290E+01  0.000000000E+00  0.00000E+00  9.000E+00
      21    -1     0     0   501   502  0.000000000E+00  0.000000000E+00 -7.385757418E+02  7.385757418E+02  0.000000000E+00  0.00000E+00  9.000E+00
      25     1     1     2     0     0 -9.105732846E+01 -1.953525066E+00 -2.169298646E+02  2.664185044E+02  1.250000000E+02  0.00000E+00  9.000E+00
      25     1     1     2     0     0  9.218784026E+01  2.588212883E+01 -4.771658590E+02  5.024746157E+02  1.250000000E+02  0.00000E+00  9.000E+00
      21     1     1     2   501   511 -1.130511805E+00 -2.392860376E+01  1.317818471E+01  2.734082455E+01  8.259061849E-07  0.00000E+00  9.000E+00
#rwgt            1           1   4.0482839386416440E-002           8       62575           0
</event>
<event>
      5   9999  3.79277E-02  5.51633E+01 -1.00000E+00  1.36683E-01
      21    -1     0     0   502   501  0.000000000E+00  0.000000000E+00  2.976680839E+02  2.976680839E+02  0.000000000E+00  0.00000E+00  9.000E+00
      21    -1     0     0   501   512  0.000000000E+00  0.000000000E+00 -4.624152874E+02  4.624152874E+02  0.000000000E+00  0.00000E+00  9.000E+00
      25     1     1     2     0     0  3.046765982E+01 -2.020766581E+02  1.375695232E+02  2.762492131E+02  1.250000000E+02  0.00000E+00  9.000E+00
      25     1     1     2     0     0 -5.527055234E-01  1.557292694E+02 -2.519471309E+01  2.012751460E+02  1.250000000E+02  0.00000E+00  9.000E+00
      21     1     1     2   502   512 -2.991495430E+01  4.634738870E+01 -2.771220136E+02  2.825590122E+02  0.000000000E+00  0.00000E+00  9.000E+00
#rwgt            1           1   2.5165862004250753E-002           8       62716           0
</event>
<event>
      5   9999  3.79277E-02  1.35822E+02 -1.00000E+00  1.18129E-01
      -3    -1     0     0     0   501  0.000000000E+00  0.000000000E+00  1.988634815E+02  1.988634815E+02  0.000000000E+00  0.00000E+00  9.000E+00
      21    -1     0     0   501   502  0.000000000E+00  0.000000000E+00 -3.868314935E+02  3.868314935E+02  0.000000000E+00  0.00000E+00  9.000E+00
      25     1     1     2     0     0  4.745582549E+01 -2.003345068E+02  1.586608070E+00  2.408598915E+02  1.250000000E+02  0.00000E+00  9.000E+00
      25     1     1     2     0     0  2.249587588E+01  8.391076816E+01 -1.020313768E+02  1.832552408E+02  1.250000000E+02  0.00000E+00  9.000E+00
      -3     1     1     2     0   502 -6.995170137E+01  1.164237387E+02 -8.752324327E+01  1.615798427E+02  0.000000000E+00  0.00000E+00  9.000E+00
#rwgt            1           1   4.8926716805777808E-002           8       62838           0
</event>
<event>
      5   9999  3.79277E-02  1.62306E+01 -1.00000E+00  1.74217E-01
      21    -1     0     0   502   511  0.000000000E+00  0.000000000E+00  6.033586358E+02  6.033586358E+02  0.000000000E+00  0.00000E+00  9.000E+00
      21    -1     0     0   501   502  0.000000000E+00  0.000000000E+00 -7.930675401E+01  7.930675401E+01  0.000000000E+00  0.00000E+00  9.000E+00
      25     1     1     2     0     0 -4.446982365E+01  1.387072937E+02  1.642010859E+02  2.525950814E+02  1.250000000E+02  0.00000E+00  9.000E+00
      25     1     1     2     0     0  3.581497199E+01 -1.524378156E+02  2.566362768E+02  3.255874359E+02  1.250000000E+02  0.00000E+00  9.000E+00
      21     1     1     2   501   511  8.654851654E+00  1.373052188E+01  1.032145192E+02  1.044828726E+02  1.348699152E-06  0.00000E+00  9.000E+00
#rwgt            1           1   4.3210389792145150E-002           8       63031           0
</event>
<event>
      5   9999  3.79277E-02  5.34853E+01 -1.00000E+00  1.37426E-01
      21    -1     0     0   512   501  0.000000000E+00  0.000000000E+00  1.374649593E+03  1.374649593E+03  0.000000000E+00  0.00000E+00  9.000E+00
      21    -1     0     0   501   502  0.000000000E+00  0.000000000E+00 -4.201399368E+01  4.201399368E+01  0.000000000E+00  0.00000E+00  9.000E+00
      25     1     1     2     0     0  1.313365192E+02 -8.555521774E+01  9.359317596E+02  9.571636407E+02  1.250000000E+02  0.00000E+00  9.000E+00
      25     1     1     2     0     0 -7.865156434E+01  7.633739766E+01  2.256497577E+02  2.802789325E+02  1.250000000E+02  0.00000E+00  9.000E+00
      21     1     1     2   512   502 -5.268495485E+01  9.217820084E+00  1.710540818E+02  1.792210132E+02  1.907348633E-06  0.00000E+00  9.000E+00
#rwgt            1           1   3.6490113677018210E-002           8       63420           0
</event>
<event>
      5   9999  3.79277E-02  7.88684E+00 -1.00000E+00  2.08483E-01
      21    -1     0     0   502   511  0.000000000E+00  0.000000000E+00  6.213600861E+02  6.213600861E+02  0.000000000E+00  0.00000E+00  9.000E+00
      21    -1     0     0   501   502  0.000000000E+00  0.000000000E+00 -1.166544770E+02  1.166544770E+02  0.000000000E+00  0.00000E+00  9.000E+00
      25     1     1     2     0     0 -1.504185244E+02 -1.767150814E+02  2.085784922E+02  3.361308374E+02  1.250000000E+02  0.00000E+00  9.000E+00
      25     1     1     2     0     0  1.534497423E+02  1.694340147E+02  2.726517354E+02  3.771189170E+02  1.250000000E+02  0.00000E+00  9.000E+00
      21     1     1     2   501   511 -3.031217879E+00  7.281066625E+00  2.347538156E+01  2.476480875E+01  3.371747881E-07  0.00000E+00  9.000E+00
#rwgt            1           1   3.8559941983407987E-002           8       63566           0
</event>
<event>
      5   9999  3.79277E-02  2.12300E+02 -1.00000E+00  1.10713E-01
      21    -1     0     0   512   501  0.000000000E+00  0.000000000E+00  3.655070159E+02  3.655070159E+02  0.000000000E+00  0.00000E+00  9.000E+00
      21    -1     0     0   501   502  0.000000000E+00  0.000000000E+00 -5.381759156E+02  5.381759156E+02  0.000000000E+00  0.00000E+00  9.000E+00
      25     1     1     2     0     0 -2.263102088E+02 -5.498024936E+01 -1.221638737E+01  2.646004130E+02  1.250000000E+02  0.00000E+00  9.000E+00
      25     1     1     2     0     0  3.561586228E+01  1.482903169E+02 -3.183700273E+02  3.744902963E+02  1.250000000E+02  0.00000E+00  9.000E+00
      21     1     1     2   512   502  1.906943466E+02 -9.331006754E+01  1.579175150E+02  2.645922222E+02  3.814697266E-06  0.00000E+00  9.000E+00
#rwgt            1           1   3.1883729621777421E-002           8       63874           0
</event>
<event>
      5   9999  3.79277E-02  1.48321E+01 -1.00000E+00  1.77845E-01
      21    -1     0     0   502   501  0.000000000E+00  0.000000000E+00  1.633622332E+02  1.633622332E+02  0.000000000E+00  0.00000E+00  9.000E+00
      21    -1     0     0   511   502  0.000000000E+00  0.000000000E+00 -7.762681372E+02  7.762681372E+02  0.000000000E+00  0.00000E+00  9.000E+00
      25     1     1     2     0     0  1.188457848E+02 -3.794556384E+01 -1.452326979E+02  2.286519690E+02  1.250000000E+02  0.00000E+00  9.000E+00
      25     1     1     2     0     0 -1.059382475E+02  3.063886772E+01  6.439823668E+01  1.787002669E+02  1.250000000E+02  0.00000E+00  9.000E+00
      21     1     1     2   511   501 -1.290753730E+01  7.306696115E+00 -5.320714427E+02  5.322781345E+02  0.000000000E+00  0.00000E+00  9.000E+00
#rwgt            1           1   3.6970050817538548E-002           8       63946           0
</event>
<event>
      5   9999  3.79277E-02  3.15230E+01 -1.00000E+00  1.51561E-01
      21    -1     0     0   502   501  0.000000000E+00  0.000000000E+00  1.783648058E+02  1.783648058E+02  0.000000000E+00  0.00000E+00  9.000E+00
      21    -1     0     0   512   502  0.000000000E+00  0.000000000E+00 -7.228765265E+02  7.228765265E+02  0.000000000E+00  0.00000E+00  9.000E+00
      25     1     1     2     0     0  1.997939002E+02  1.546376174E+01 -1.896883982E+02  3.029247743E+02  1.250000000E+02  0.00000E+00  9.000E+00
      25     1     1     2     0     0 -1.712935418E+02 -1.994298473E+00  2.826119826E+01  2.139372572E+02  1.250000000E+02  0.00000E+00  9.000E+00
      21     1     1     2   512   501 -2.850035843E+01 -1.346946326E+01 -3.830845208E+02  3.843793008E+02  5.394796609E-06  0.00000E+00  9.000E+00
#rwgt            1           1   3.9181483605254884E-002           8       64214           0
</event>
<event>
      5   9999  3.79277E-02  1.19244E+02 -1.00000E+00  1.20485E-01
      21    -1     0     0   502   501  0.000000000E+00  0.000000000E+00  6.680718165E+01  6.680718165E+01  0.000000000E+00  0.00000E+00  9.000E+00
      21    -1     0     0   501   511  0.000000000E+00  0.000000000E+00 -1.352113366E+03  1.352113366E+03  0.000000000E+00  0.00000E+00  9.000E+00
      25     1     1     2     0     0  1.761226454E+02 -1.502914593E+02 -8.031334233E+02  8.451360864E+02  1.250000000E+02  0.00000E+00  9.000E+00
      25     1     1     2     0     0 -7.081213744E+01  9.435658708E+01 -1.797485532E+02  2.487007573E+02  1.250000000E+02  0.00000E+00  9.000E+00
      21     1     1     2   502   511 -1.053105080E+02  5.593487220E+01 -3.024242077E+02  3.250837037E+02  0.000000000E+00  0.00000E+00  9.000E+00
#rwgt            1           1   2.7201137379331559E-002           8       64390           0
</event>
<event>
      5   9999  3.79277E-02  2.00026E+02  7.55638E-03  1.11646E-01
      -3    -1     0     0     0   501  0.000000000E+00  0.000000000E+00  2.966089526E+02  2.966089526E+02  0.000000000E+00  0.00000E+00  9.000E+00
       3    -1     0     0   502     0  0.000000000E+00  0.000000000E+00 -3.106518679E+02  3.106518679E+02  0.000000000E+00  0.00000E+00  9.000E+00
      25     1     1     2     0     0  9.217407650E+01  1.278956137E+02 -1.379506908E+01  2.016647027E+02  1.250000000E+02  0.00000E+00  9.000E+00
      25     1     1     2     0     0 -1.029923395E+02  7.183762107E+01  7.430135464E+01  1.921295321E+02  1.250000000E+02  0.00000E+00  9.000E+00
      21     1     1     2   502   501  1.081826301E+01 -1.997332348E+02 -7.454920091E+01  2.134665858E+02  3.438521648E-06  0.00000E+00  9.000E+00
#rwgt            3           3   3.0323014347681745E-005           8       64491           0
</event>
<event>
      5   9999  3.79277E-02  4.87606E+01 -1.00000E+00  1.39700E-01
      21    -1     0     0   502   501  0.000000000E+00  0.000000000E+00  1.206007040E+02  1.206007040E+02  0.000000000E+00  0.00000E+00  9.000E+00
       2    -1     0     0   501     0  0.000000000E+00  0.000000000E+00 -1.312579291E+03  1.312579291E+03  0.000000000E+00  0.00000E+00  9.000E+00
      25     1     1     2     0     0 -1.057127564E+02  7.120552856E-01  6.721005258E+00  1.638470805E+02  1.250000000E+02  0.00000E+00  9.000E+00
      25     1     1     2     0     0  1.241725352E+02  4.441923899E+01 -2.030164722E+02  2.724565567E+02  1.250000000E+02  0.00000E+00  9.000E+00
       2     1     1     2   502     0 -1.845977882E+01 -4.513129428E+01 -9.956831197E+02  9.968763574E+02  1.078959322E-05  0.00000E+00  9.000E+00
#rwgt            1           1   3.5729716047882894E-002           8       64510           0
</event>
<event>
      5   9999  3.79277E-02  6.31242E+01 -1.00000E+00  1.33536E-01
      21    -1     0     0   502   501  0.000000000E+00  0.000000000E+00  3.979026888E+02  3.979026888E+02  0.000000000E+00  0.00000E+00  9.000E+00
      21    -1     0     0   501   511  0.000000000E+00  0.000000000E+00 -5.736493468E+02  5.736493468E+02  0.000000000E+00  0.00000E+00  9.000E+00
      25     1     1     2     0     0  2.378532459E+01 -2.007284711E+01  3.661404901E+02  3.881398193E+02  1.250000000E+02  0.00000E+00  9.000E+00
      25     1     1     2     0     0  3.860981839E+01  1.050639845E+01 -2.265799739E+02  2.618484047E+02  1.250000000E+02  0.00000E+00  9.000E+00
      21     1     1     2   502   511 -6.239514298E+01  9.566448658E+00 -3.153071742E+02  3.215638115E+02  3.814697266E-06  0.00000E+00  9.000E+00
#rwgt            1           1   3.6575323608855778E-002           8       64603           0
</event>
<event>
      5   9999  3.79277E-02  1.11520E+02 -1.00000E+00  1.21735E-01
      21    -1     0     0   502   512  0.000000000E+00  0.000000000E+00  2.211983760E+02  2.211983760E+02  0.000000000E+00  0.00000E+00  9.000E+00
      21    -1     0     0   501   502  0.000000000E+00  0.000000000E+00 -4.003350790E+02  4.003350790E+02  0.000000000E+00  0.00000E+00  9.000E+00
      25     1     1     2     0     0  8.206923223E+01  1.082858787E+02  2.956774093E+01  1.869771155E+02  1.250000000E+02  0.00000E+00  9.000E+00
      25     1     1     2     0     0 -6.991388687E+01 -2.191416586E+02 -1.849487492E+02  3.205340199E+02  1.250000000E+02  0.00000E+00  9.000E+00
      21     1     1     2   501   512 -1.215534536E+01  1.108557799E+02 -2.375569477E+01  1.140223197E+02  1.784161275E-06  0.00000E+00  9.000E+00
#rwgt            1           1   3.2668350916161243E-002           8       64730           0
</event>
<event>
      5   9999  3.79277E-02  1.97814E+02 -1.00000E+00  1.11822E-01
      21    -1     0     0   502   501  0.000000000E+00  0.000000000E+00  2.473213568E+02  2.473213568E+02  0.000000000E+00  0.00000E+00  9.000E+00
      21    -1     0     0   511   502  0.000000000E+00  0.000000000E+00 -4.259289319E+02  4.259289319E+02  0.000000000E+00  0.00000E+00  9.000E+00
      25     1     1     2     0     0 -6.024313975E+01 -4.688735325E+01 -4.425056609E+01  1.530057920E+02  1.250000000E+02  0.00000E+00  9.000E+00
      25     1     1     2     0     0  2.288113780E+02  1.504005004E+02 -4.968609087E+01  3.050715733E+02  1.250000000E+02  0.00000E+00  9.000E+00
      21     1     1     2   511   501 -1.685682383E+02 -1.035131471E+02 -8.467091818E+01  2.151729234E+02  2.132480600E-06  0.00000E+00  9.000E+00
#rwgt            2          11   1.4828120162411189E-003           8       64899           0
</event>
<event>
      5   9999  3.79277E-02  8.04324E+01 -1.00000E+00  1.28236E-01
      21    -1     0     0   502   501  0.000000000E+00  0.000000000E+00  4.507914706E+02  4.507914706E+02  0.000000000E+00  0.00000E+00  9.000E+00
      21    -1     0     0   512   502  0.000000000E+00  0.000000000E+00 -3.132546369E+02  3.132546369E+02  0.000000000E+00  0.00000E+00  9.000E+00
      25     1     1     2     0     0 -2.806091214E+02 -5.674298149E+01  3.222312439E+01  3.140454978E+02  1.250000000E+02  0.00000E+00  9.000E+00
      25     1     1     2     0     0  2.883906488E+02 -2.331211453E+01  1.592814314E+02  3.531404755E+02  1.250000000E+02  0.00000E+00  9.000E+00
      21     1     1     2   512   501 -7.781527484E+00  8.005509602E+01 -5.396772212E+01  9.686013422E+01  1.168007728E-06  0.00000E+00  9.000E+00
#rwgt            1           1   2.6855232961154291E-002           8       64979           0
</event>
<event>
      5   9999  3.79277E-02  1.74860E+01 -1.00000E+00  1.71331E-01
      21    -1     0     0   511   501  0.000000000E+00  0.000000000E+00  6.759295684E+01  6.759295684E+01  0.000000000E+00  0.00000E+00  9.000E+00
      21    -1     0     0   501   502  0.000000000E+00  0.000000000E+00 -7.172971548E+02  7.172971548E+02  0.000000000E+00  0.00000E+00  9.000E+00
      25     1     1     2     0     0  4.092277081E+01 -1.660220435E+02 -3.820640345E+02  4.368477064E+02  1.250000000E+02  0.00000E+00  9.000E+00
      25     1     1     2     0     0 -5.315120872E+01  1.535230321E+02 -2.478016467E+02  3.215976189E+02  1.250000000E+02  0.00000E+00  9.000E+00
      21     1     1     2   511   502  1.222843791E+01  1.249901140E+01 -1.983851679E+01  2.644478641E+01  5.331201500E-07  0.00000E+00  9.000E+00
#rwgt            1           1   4.3337382486482626E-002           8       65090           0
</event>
<event>
      5   9999  3.79277E-02  5.13321E+01 -1.00000E+00  1.38427E-01
      21    -1     0     0   502   501  0.000000000E+00  0.000000000E+00  3.209793270E+02  3.209793270E+02  0.000000000E+00  0.00000E+00  9.000E+00
      21    -1     0     0   501   512  0.000000000E+00  0.000000000E+00 -5.293311736E+02  5.293311736E+02  0.000000000E+00  0.00000E+00  9.000E+00
      25     1     1     2     0     0  9.313302258E+01 -9.434332140E+01  2.258320493E+02  2.901715642E+02  1.250000000E+02  0.00000E+00  9.000E+00
      25     1     1     2     0     0 -9.635136520E+01  4.311220354E+01 -4.792185036E+01  1.704809415E+02  1.250000000E+02  0.00000E+00  9.000E+00
      21     1     1     2   502   512  3.218342619E+00  5.123111786E+01 -3.862620456E+02  3.896579949E+02  0.000000000E+00  0.00000E+00  9.000E+00
#rwgt            1           1   4.1911068517363821E-002           8       65489           0
</event>
<event>
      5   9999  3.79277E-02  3.62160E+01 -1.00000E+00  1.47569E-01
      21    -1     0     0   511   501  0.000000000E+00  0.000000000E+00  3.818133998E+02  3.818133998E+02  0.000000000E+00  0.00000E+00  9.000E+00
      21    -1     0     0   501   502  0.000000000E+00  0.000000000E+00 -1.790255791E+02  1.790255791E+02  0.000000000E+00  0.00000E+00  9.000E+00
      25     1     1     2     0     0 -1.981424448E+02  1.655923421E+01  1.526533116E+02  2.801118887E+02  1.250000000E+02  0.00000E+00  9.000E+00
      25     1     1     2     0     0  1.769774732E+02  1.282857416E+01 -2.227194251E+00  2.170611866E+02  1.250000000E+02  0.00000E+00  9.000E+00
      21     1     1     2   511   502  2.116497157E+01 -2.938780837E+01  5.236170336E+01  6.366590360E+01  6.743495762E-07  0.00000E+00  9.000E+00
#rwgt            1           1   4.5867938364297027E-002           8       65617           0
</event>
<event>
      5   9999  3.79277E-02  5.73598E+01 -1.00000E+00  1.35756E-01
      21    -1     0     0   502   512  0.000000000E+00  0.000000000E+00  3.455879599E+02  3.455879599E+02  0.000000000E+00  0.00000E+00  9.000E+00
      21    -1     0     0   501   502  0.000000000E+00  0.000000000E+00 -2.491205238E+02  2.491205238E+02  0.000000000E+00  0.00000E+00  9.000E+00
      25     1     1     2     0     0  8.889855864E+00  1.769849938E+01  8.913488927E+01  1.547975933E+02  1.250000000E+02  0.00000E+00  9.000E+00
      25     1     1     2     0     0  9.282712411E+00  3.670654760E+01 -1.921550757E+02  2.323405098E+02  1.250000000E+02  0.00000E+00  9.000E+00
      21     1     1     2   501   512 -1.817256827E+01 -5.440504697E+01  1.994876225E+02  2.075703806E+02  2.697398305E-06  0.00000E+00  9.000E+00
#rwgt            1           1   5.0399758697326755E-002           8       65863           0
</event>
<event>
      5   9999  3.79277E-02  4.66242E+01 -1.00000E+00  1.40830E-01
      21    -1     0     0   502   511  0.000000000E+00  0.000000000E+00  6.474347345E+02  6.474347345E+02  0.000000000E+00  0.00000E+00  9.000E+00
      21    -1     0     0   501   502  0.000000000E+00  0.000000000E+00 -1.678946378E+02  1.678946378E+02  0.000000000E+00  0.00000E+00  9.000E+00
      25     1     1     2     0     0  3.816176843E+00 -9.604221767E+01 -8.312213291E+01  1.782497118E+02  1.250000000E+02  0.00000E+00  9.000E+00
      25     1     1     2     0     0  3.943564882E+01  1.134519609E+02  1.739498377E+02  2.455810739E+02  1.250000000E+02  0.00000E+00  9.000E+00
      21     1     1     2   501   511 -4.325182567E+01 -1.740974327E+01  3.887123920E+02  3.914985865E+02  5.394796609E-06  0.00000E+00  9.000E+00
#rwgt            1           1   3.0360103528932703E-002           8       65916           0
</event>
<event>
      5   9999  3.79277E-02  1.15831E+02 -1.00000E+00  1.21024E-01
      21    -1     0     0   502   501  0.000000000E+00  0.000000000E+00  3.100337790E+02  3.100337790E+02  0.000000000E+00  0.00000E+00  9.000E+00
       2    -1     0     0   501     0  0.000000000E+00  0.000000000E+00 -9.170905928E+02  9.170905928E+02  0.000000000E+00  0.00000E+00  9.000E+00
      25     1     1     2     0     0 -2.461495121E+01 -1.525344155E+02  2.303744672E+02  3.042532479E+02  1.250000000E+02  0.00000E+00  9.000E+00
      25     1     1     2     0     0  7.648173759E+01  4.896496462E+01 -1.186250385E+02  1.947920011E+02  1.250000000E+02  0.00000E+00  9.000E+00
       2     1     1     2   502     0 -5.186678638E+01  1.035694509E+02 -7.188062425E+02  7.280791227E+02  1.321449896E-05  0.00000E+00  9.000E+00
#rwgt            1           1   3.2227010719775954E-002           8       66031           0
</event>
<event>
      5   9999  3.79277E-02  4.28448E+01 -1.00000E+00  1.43014E-01
      21    -1     0     0   502   501  0.000000000E+00  0.000000000E+00  5.542784150E+02  5.542784150E+02  0.000000000E+00  0.00000E+00  9.000E+00
      21    -1     0     0   501   511  0.000000000E+00  0.000000000E+00 -1.000596586E+02  1.000596586E+02  0.000000000E+00  0.00000E+00  9.000E+00
      25     1     1     2     0     0  1.691685407E+02  6.975638810E-02  2.350547136E+02  3.154262488E+02  1.250000000E+02  0.00000E+00  9.000E+00
      25     1     1     2     0     0 -1.704643476E+02  4.275547590E+01  1.834019931E+02  2.831031890E+02  1.250000000E+02  0.00000E+00  9.000E+00
      21     1     1     2   502   511  1.295806905E+00 -4.282523229E+01  3.576204974E+01  5.580863587E+01  1.430511475E-06  0.00000E+00  9.000E+00
#rwgt            1           1   3.8462117469835473E-002           8       66315           0
</event>
<event>
      5   9999  3.79277E-02  4.59790E+01 -1.00000E+00  1.41185E-01
      21    -1     0     0   502   512  0.000000000E+00  0.000000000E+00  8.890525937E+02  8.890525937E+02  0.000000000E+00  0.00000E+00  9.000E+00
      21    -1     0     0   501   502  0.000000000E+00  0.000000000E+00 -1.514283177E+02  1.514283177E+02  0.000000000E+00  0.00000E+00  9.000E+00
      25     1     1     2     0     0 -1.110987815E+02 -1.973141929E+01  6.937990149E+02  7.139428137E+02  1.250000000E+02  0.00000E+00  9.000E+00
      25     1     1     2     0     0  1.562875032E+02  2.821978719E+01 -6.179590950E+01  2.113430256E+02  1.250000000E+02  0.00000E+00  9.000E+00
      21     1     1     2   501   512 -4.518872177E+01 -8.488367899E+00  1.056211706E+02  1.151950721E+02  1.348699152E-06  0.00000E+00  9.000E+00
#rwgt            1           1   5.1016866880060685E-002           8       66487           0
</event>
<event>
      5   9999  3.79277E-02  1.27442E+01 -1.00000E+00  1.84322E-01
      -1    -1     0     0     0   501  0.000000000E+00  0.000000000E+00  2.470126989E+02  2.470126989E+02  0.000000000E+00  0.00000E+00  9.000E+00
      21    -1     0     0   501   502  0.000000000E+00  0.000000000E+00 -5.542693855E+02  5.542693855E+02  0.000000000E+00  0.00000E+00  9.000E+00
      25     1     1     2     0     0  1.263326461E+02 -6.458450564E+01 -1.018366464E+02  2.147715028E+02  1.250000000E+02  0.00000E+00  9.000E+00
      25     1     1     2     0     0 -1.375429128E+02  5.852280843E+01 -3.717349850E+02  4.197080784E+02  1.250000000E+02  0.00000E+00  9.000E+00
      -1     1     1     2     0   502  1.121026667E+01  6.061697210E+00  1.663149448E+02  1.668025033E+02  2.697398305E-06  0.00000E+00  9.000E+00
#rwgt            1           1   2.7581379483184669E-002           8       66670           0
</event>
<event>
      5   9999  3.79277E-02  5.16961E+01 -1.00000E+00  1.38254E-01
      21    -1     0     0   502   501  0.000000000E+00  0.000000000E+00  2.915707680E+02  2.915707680E+02  0.000000000E+00  0.00000E+00  9.000E+00
      21    -1     0     0   511   502  0.000000000E+00  0.000000000E+00 -3.208224644E+02  3.208224644E+02  0.000000000E+00  0.00000E+00  9.000E+00
      25     1     1     2     0     0 -6.968403740E+01  9.899071039E+01  9.855069018E+01  1.999806599E+02  1.250000000E+02  0.00000E+00  9.000E+00
      25     1     1     2     0     0  5.726014502E+01 -1.491717532E+02  6.482040214E+01  2.129732863E+02  1.250000000E+02  0.00000E+00  9.000E+00
      21     1     1     2   511   501  1.242389238E+01  5.018104277E+01 -1.926227887E+02  1.994392862E+02  2.697398305E-06  0.00000E+00  9.000E+00
#rwgt            1           1   5.2117509625347627E-002           8       66872           0
</event>
<event>
      5   9999  3.79277E-02  6.16906E+01 -1.00000E+00  1.34062E-01
      21    -1     0     0   502   501  0.000000000E+00  0.000000000E+00  3.251420422E+02  3.251420422E+02  0.000000000E+00  0.00000E+00  9.000E+00
      21    -1     0     0   512   502  0.000000000E+00  0.000000000E+00 -5.455076644E+02  5.455076644E+02  0.000000000E+00  0.00000E+00  9.000E+00
      25     1     1     2     0     0  2.597810437E+02  3.349328737E+01 -1.503803929E+02  3.268749815E+02  1.250000000E+02  0.00000E+00  9.000E+00
      25     1     1     2     0     0 -2.222246493E+02  1.544797422E+01  1.628326589E+02  3.029222829E+02  1.250000000E+02  0.00000E+00  9.000E+00
      21     1     1     2   512   501 -3.755639438E+01 -4.894126159E+01 -2.328178883E+02  2.408524422E+02  3.814697266E-06  0.00000E+00  9.000E+00
#rwgt            1           1   2.8190589970509394E-002           8       66976           0
</event>
<event>
      5   9999 -3.79277E-02  4.34143E+01 -1.00000E+00  1.42668E-01
      21    -1     0     0   511   501  0.000000000E+00  0.000000000E+00  8.740114973E+01  8.740114973E+01  0.000000000E+00  0.00000E+00  9.000E+00
      21    -1     0     0   501   502  0.000000000E+00  0.000000000E+00 -1.022254430E+03  1.022254430E+03  0.000000000E+00  0.00000E+00  9.000E+00
      25     1     1     2     0     0 -2.075908198E+02  3.409546224E+01 -5.227350746E+02  5.771771021E+02  1.250000000E+02  0.00000E+00  9.000E+00
      25     1     1     2     0     0  1.774538813E+02 -6.534554670E+01 -4.295514368E+02  4.856947162E+02  1.250000000E+02  0.00000E+00  9.000E+00
      21     1     1     2   511   502  3.013693845E+01  3.125008446E+01  1.743323072E+01  4.678376183E+01  4.768371582E-07  0.00000E+00  9.000E+00
#rwgt            1           1 -0.10196370663790752                8       67058           0
</event>
<event>
      5   9999  3.79277E-02  5.79606E+01 -1.00000E+00  1.35511E-01
      21    -1     0     0   502   512  0.000000000E+00  0.000000000E+00  6.633025818E+02  6.633025818E+02  0.000000000E+00  0.00000E+00  9.000E+00
      21    -1     0     0   501   502  0.000000000E+00  0.000000000E+00 -3.096725053E+02  3.096725053E+02  0.000000000E+00  0.00000E+00  9.000E+00
      25     1     1     2     0     0 -4.536265031E+01 -1.378685637E+02  1.370163449E+01  1.920370945E+02  1.250000000E+02  0.00000E+00  9.000E+00
      25     1     1     2     0     0  3.419723816E+01  1.947435663E+02 -1.563008909E+02  2.813351670E+02  1.250000000E+02  0.00000E+00  9.000E+00
      21     1     1     2   501   512  1.116541216E+01 -5.687500267E+01  4.962293329E+02  4.996028254E+02  7.629394531E-06  0.00000E+00  9.000E+00
#rwgt            1           1   3.8919915474335362E-002           8       67156           0
</event>
<event>
      5   9999  3.79277E-02  7.90672E+01 -1.00000E+00  1.28597E-01
       2    -1     0     0   502     0  0.000000000E+00  0.000000000E+00  4.604471469E+02  4.604471469E+02  0.000000000E+00  0.00000E+00  9.000E+00
      21    -1     0     0   501   502  0.000000000E+00  0.000000000E+00 -2.471929992E+03  2.471929992E+03  0.000000000E+00  0.00000E+00  9.000E+00
      25     1     1     2     0     0  3.166197472E+02 -8.769910209E+01 -1.244935433E+03  1.293610618E+03  1.250000000E+02  0.00000E+00  9.000E+00
      25     1     1     2     0     0 -2.552494991E+02  1.375519943E+02 -1.178104282E+03  1.219683384E+03  1.250000000E+02  0.00000E+00  9.000E+00
       2     1     1     2   501     0 -6.137024808E+01 -4.985289217E+01  4.115568705E+02  4.190831371E+02  7.629394531E-06  0.00000E+00  9.000E+00
#rwgt            1           1   9.0843723629835491E-002           8       67253           0
</event>
<event>
      5   9999  3.79277E-02  4.95367E+01 -1.00000E+00  1.39307E-01
      21    -1     0     0   502   501  0.000000000E+00  0.000000000E+00  1.443711298E+03  1.443711298E+03  0.000000000E+00  0.00000E+00  9.000E+00
      21    -1     0     0   511   502  0.000000000E+00  0.000000000E+00 -4.999946668E+01  4.999946668E+01  0.000000000E+00  0.00000E+00  9.000E+00
      25     1     1     2     0     0  1.708047410E+01 -1.751954596E+02  6.258762135E+02  6.620658776E+02  1.250000000E+02  0.00000E+00  9.000E+00
      25     1     1     2     0     0 -4.801472348E+01  2.138859949E+02  7.193578404E+02  7.623341361E+02  1.250000000E+02  0.00000E+00  9.000E+00
      21     1     1     2   511   501  3.093424938E+01 -3.869053537E+01  4.847777768E+01  6.931075126E+01  1.348699152E-06  0.00000E+00  9.000E+00
#rwgt            1           1   3.1358596898254008E-002           8       67335           0
</event>
<event>
      5   9999 -3.79277E-02  9.17489E+01 -1.00000E+00  1.25534E-01
      21    -1     0     0   502   501  0.000000000E+00  0.000000000E+00  1.055490073E+03  1.055490073E+03  0.000000000E+00  0.00000E+00  9.000E+00
      21    -1     0     0   501   512  0.000000000E+00  0.000000000E+00 -1.311211596E+02  1.311211596E+02  0.000000000E+00  0.00000E+00  9.000E+00
      25     1     1     2     0     0  1.103602846E+02  3.108122017E+02  3.067976771E+02  4.674755949E+02  1.250000000E+02  0.00000E+00  9.000E+00
      25     1     1     2     0     0 -5.808525139E+01 -2.354120223E+02  5.044233066E+02  5.734636770E+02  1.250000000E+02  0.00000E+00  9.000E+00
      21     1     1     2   502   512 -5.227503319E+01 -7.540017945E+01  1.131479300E+02  1.456719610E+02  3.303624740E-06  0.00000E+00  9.000E+00
#rwgt            1           1 -0.11340192043162138                8       67545           0
</event>
<event>
      5   9999  3.79277E-02  1.18901E+02 -1.00000E+00  1.20538E-01
      21    -1     0     0   502   501  0.000000000E+00  0.000000000E+00  2.053068910E+02  2.053068910E+02  0.000000000E+00  0.00000E+00  9.000E+00
      21    -1     0     0   511   502  0.000000000E+00  0.000000000E+00 -8.861577709E+02  8.861577709E+02  0.000000000E+00  0.00000E+00  9.000E+00
      25     1     1     2     0     0  2.728746802E+01  1.172982714E+02  2.788470902E+01  1.758011587E+02  1.250000000E+02  0.00000E+00  9.000E+00
      25     1     1     2     0     0  9.126398287E+01 -1.264090246E+02 -2.870241067E+00  1.998539325E+02  1.250000000E+02  0.00000E+00  9.000E+00
      21     1     1     2   511   501 -1.185514509E+02  9.110753161E+00 -7.058653478E+02  7.158095707E+02  7.629394531E-06  0.00000E+00  9.000E+00
#rwgt            1           1   4.1621870619833537E-002           8       67684           0
</event>
<event>
      5   9999  3.79277E-02  8.91565E+01 -1.00000E+00  1.26112E-01
      21    -1     0     0   502   501  0.000000000E+00  0.000000000E+00  5.563038610E+02  5.563038610E+02  0.000000000E+00  0.00000E+00  9.000E+00
      21    -1     0     0   512   502  0.000000000E+00  0.000000000E+00 -4.842639189E+02  4.842639189E+02  0.000000000E+00  0.00000E+00  9.000E+00
      25     1     1     2     0     0  1.613803294E+02  3.524256159E+02  8.583302432E+01  4.162207750E+02  1.250000000E+02  0.00000E+00  9.000E+00
      25     1     1     2     0     0 -1.638058302E+02 -2.633021596E+02  2.021626704E+02  3.907110474E+02  1.250000000E+02  0.00000E+00  9.000E+00
      21     1     1     2   512   501  2.425500806E+00 -8.912345635E+01 -2.159557526E+02  2.336359575E+02  2.697398305E-06  0.00000E+00  9.000E+00
#rwgt            1           1   3.2045607621193975E-002           8       67778           0
</event>
<event>
      5   9999  3.79277E-02  3.33133E+01 -1.00000E+00  1.49946E-01
      21    -1     0     0   502   501  0.000000000E+00  0.000000000E+00  3.803469304E+02  3.803469304E+02  0.000000000E+00  0.00000E+00  9.000E+00
      21    -1     0     0   501   511  0.000000000E+00  0.000000000E+00 -1.264327261E+02  1.264327261E+02  0.000000000E+00  0.00000E+00  9.000E+00
      25     1     1     2     0     0 -3.802205873E+01  7.153634021E+01  2.556178633E+02  2.958523567E+02  1.250000000E+02  0.00000E+00  9.000E+00
      25     1     1     2     0     0  6.421268055E+01 -9.212344073E+01  2.280019684E+01  1.695725380E+02  1.250000000E+02  0.00000E+00  9.000E+00
      21     1     1     2   502   511 -2.619062182E+01  2.058710051E+01 -2.450385580E+01  4.135476185E+01  5.840038640E-07  0.00000E+00  9.000E+00
#rwgt            1           1   3.8909865982583010E-002           8       67865           0
</event>
<event>
      5   9999  3.79277E-02  5.20640E+01 -1.00000E+00  1.38081E-01
      21    -1     0     0   502   501  0.000000000E+00  0.000000000E+00  3.627964599E+02  3.627964599E+02  0.000000000E+00  0.00000E+00  9.000E+00
      21    -1     0     0   501   512  0.000000000E+00  0.000000000E+00 -6.675268140E+02  6.675268140E+02  0.000000000E+00  0.00000E+00  9.000E+00
      25     1     1     2     0     0  3.871503502E+01 -7.101359202E+01  3.102249452E+02  3.441021663E+02  1.250000000E+02  0.00000E+00  9.000E+00
      25     1     1     2     0     0 -9.052132848E+01  7.618727090E+01 -1.833134455E+02  2.514506521E+02  1.250000000E+02  0.00000E+00  9.000E+00
      21     1     1     2   502   512  5.180629346E+01 -5.173678871E+00 -4.316418538E+02  4.347704555E+02  0.000000000E+00  0.00000E+00  9.000E+00
#rwgt            1           1   3.3889602954906901E-002           8       67960           0
</event>
<event>
      5   9999  3.79277E-02  2.32678E+01 -1.00000E+00  1.61123E-01
      21    -1     0     0   502   501  0.000000000E+00  0.000000000E+00  5.018316028E+01  5.018316028E+01  0.000000000E+00  0.00000E+00  9.000E+00
      21    -1     0     0   511   502  0.000000000E+00  0.000000000E+00 -1.129038175E+03  1.129038175E+03  0.000000000E+00  0.00000E+00  9.000E+00
      25     1     1     2     0     0  8.490978848E+01 -1.002922703E+02 -7.036401267E+02  7.266379012E+02  1.250000000E+02  0.00000E+00  9.000E+00
      25     1     1     2     0     0 -9.514852323E+01  7.939829406E+01 -1.655727416E+02  2.416540158E+02  1.250000000E+02  0.00000E+00  9.000E+00
      21     1     1     2   511   501  1.023873475E+01  2.089397623E+01 -2.096421469E+02  2.109294188E+02  2.697398305E-06  0.00000E+00  9.000E+00
#rwgt            1           1   4.2887962930711017E-002           8       68072           0
</event>
<event>
      5   9999  3.79277E-02  1.21449E+02 -1.00000E+00  1.20147E-01
      21    -1     0     0   502   512  0.000000000E+00  0.000000000E+00  4.081720787E+02  4.081720787E+02  0.000000000E+00  0.00000E+00  9.000E+00
      21    -1     0     0   501   502  0.000000000E+00  0.000000000E+00 -3.856187887E+02  3.856187887E+02  0.000000000E+00  0.00000E+00  9.000E+00
      25     1     1     2     0     0 -1.007328508E+02  1.070961947E+02  6.999619315E+01  2.052831440E+02  1.250000000E+02  0.00000E+00  9.000E+00
      25     1     1     2     0     0  2.191372190E+02 -1.341214900E+02 -2.316777489E+02  3.678440895E+02  1.250000000E+02  0.00000E+00  9.000E+00
      21     1     1     2   501   512 -1.184043682E+02  2.702529526E+01  1.842348457E+02  2.206636340E+02  3.814697266E-06  0.00000E+00  9.000E+00
#rwgt            1           1   4.1263656358459098E-002           8       68316           0
</event>
<event>
      5   9999  3.79277E-02  3.43737E+01 -1.00000E+00  1.49045E-01
      21    -1     0     0   502   501  0.000000000E+00  0.000000000E+00  6.816768840E+02  6.816768840E+02  0.000000000E+00  0.00000E+00  9.000E+00
      21    -1     0     0   511   502  0.000000000E+00  0.000000000E+00 -5.783593252E+01  5.783593252E+01  0.000000000E+00  0.00000E+00  9.000E+00
      25     1     1     2     0     0 -2.860310563E+01  6.790030507E+01  5.191120916E+02  5.390092325E+02  1.250000000E+02  0.00000E+00  9.000E+00
      25     1     1     2     0     0  2.575215111E+01 -3.364500591E+01  6.244916490E+01  1.460138963E+02  1.250000000E+02  0.00000E+00  9.000E+00
      21     1     1     2   511   501  2.850954518E+00 -3.425529916E+01  4.227969503E+01  5.448968778E+01  1.430511475E-06  0.00000E+00  9.000E+00
#rwgt            1           1   4.2150642607585845E-002           8       68391           0
</event>
<event>
      5   9999  3.79277E-02  2.86545E+01 -1.00000E+00  1.54437E-01
      21    -1     0     0   512   501  0.000000000E+00  0.000000000E+00  3.109627635E+02  3.109627635E+02  0.000000000E+00  0.00000E+00  9.000E+00
      21    -1     0     0   501   502  0.000000000E+00  0.000000000E+00 -1.929909472E+02  1.929909472E+02  0.000000000E+00  0.00000E+00  9.000E+00
      25     1     1     2     0     0 -2.854434230E+01 -1.227126597E+02 -5.777941033E+01  1.866457516E+02  1.250000000E+02  0.00000E+00  9.000E+00
      25     1     1     2     0     0  2.083519151E+01  1.503107012E+02  7.151546820E+01  2.092053400E+02  1.250000000E+02  0.00000E+00  9.000E+00
      21     1     1     2   512   502  7.709150790E+00 -2.759804153E+01  1.042357585E+02  1.081026191E+02  0.000000000E+00  0.00000E+00  9.000E+00
#rwgt            1           1   3.7756716829990628E-002           8       68508           0
</event>
<event>
      5   9999  3.79277E-02  1.43068E+02 -1.00000E+00  1.17214E-01
      21    -1     0     0   502   501  0.000000000E+00  0.000000000E+00  6.951947689E+01  6.951947689E+01  0.000000000E+00  0.00000E+00  9.000E+00
       2    -1     0     0   501     0  0.000000000E+00  0.000000000E+00 -1.341311450E+03  1.341311450E+03  0.000000000E+00  0.00000E+00  9.000E+00
      25     1     1     2     0     0 -1.090150584E+02 -3.195062505E+00 -2.538540247E+02  3.032513104E+02  1.250000000E+02  0.00000E+00  9.000E+00
      25     1     1     2     0     0  8.547278402E+01 -1.379227180E+02 -2.352476108E+02  3.119210017E+02  1.250000000E+02  0.00000E+00  9.000E+00
       2     1     1     2   502     0  2.354227438E+01  1.411177805E+02 -7.826903380E+02  7.956586151E+02  1.078959322E-05  0.00000E+00  9.000E+00
#rwgt            1           1   3.7790846266262855E-002           8       68615           0
</event>
<event>
      5   9999  3.79277E-02  1.61700E+02 -1.00000E+00  1.15115E-01
      21    -1     0     0   502   511  0.000000000E+00  0.000000000E+00  5.153165603E+02  5.153165603E+02  0.000000000E+00  0.00000E+00  9.000E+00
      21    -1     0     0   501   502  0.000000000E+00  0.000000000E+00 -3.474118168E+02  3.474118168E+02  0.000000000E+00  0.00000E+00  9.000E+00
      25     1     1     2     0     0  2.001900182E+02 -2.012553022E+02  7.910458354E+01  3.200972902E+02  1.250000000E+02  0.00000E+00  9.000E+00
      25     1     1     2     0     0 -3.304509607E+02  1.054489943E+02  2.759191977E+01  3.697345559E+02  1.250000000E+02  0.00000E+00  9.000E+00
      21     1     1     2   501   511  1.302609424E+02  9.580630796E+01  6.120824017E+01  1.728965310E+02  2.523185073E-06  0.00000E+00  9.000E+00
#rwgt            1           1   3.5595503808301156E-002           8       68754           0
</event>
<event>
      5   9999  3.79277E-02  5.13733E+01 -1.00000E+00  1.38407E-01
      21    -1     0     0   502   501  0.000000000E+00  0.000000000E+00  3.221330415E+01  3.221330415E+01  0.000000000E+00  0.00000E+00  9.000E+00
       2    -1     0     0   501     0  0.000000000E+00  0.000000000E+00 -1.482342148E+03  1.482342148E+03  0.000000000E+00  0.00000E+00  9.000E+00
      25     1     1     2     0     0  6.477193718E+01  3.059864806E+01 -1.065654924E+03  1.075349757E+03  1.250000000E+02  0.00000E+00  9.000E+00
      25     1     1     2     0     0 -1.427673566E+01 -2.114100051E+01 -1.400695437E+02  1.894604026E+02  1.250000000E+02  0.00000E+00  9.000E+00
       2     1     1     2   502     0 -5.049520152E+01 -9.457647551E+00 -2.444043759E+02  2.497452931E+02  3.814697266E-06  0.00000E+00  9.000E+00
#rwgt            1           1   4.9331838872592397E-002           8       68824           0
</event>
<event>
      5   9999  3.79277E-02  7.66432E+00 -1.00000E+00  2.10135E-01
      21    -1     0     0   502   501  0.000000000E+00  0.000000000E+00  2.954813313E+02  2.954813313E+02  0.000000000E+00  0.00000E+00  9.000E+00
      21    -1     0     0   501   511  0.000000000E+00  0.000000000E+00 -2.279576926E+02  2.279576926E+02  0.000000000E+00  0.00000E+00  9.000E+00
      25     1     1     2     0     0  8.160139711E+01  1.473808061E+02 -6.392553548E+01  2.192974330E+02  1.250000000E+02  0.00000E+00  9.000E+00
      25     1     1     2     0     0 -7.453869465E+01 -1.444042293E+02  1.690743458E+02  2.657437353E+02  1.250000000E+02  0.00000E+00  9.000E+00
      21     1     1     2   502   511 -7.062702461E+00 -2.976576858E+00 -3.762517170E+01  3.839785568E+01  6.743495762E-07  0.00000E+00  9.000E+00
#rwgt            1           1   3.3245952248251442E-002           8       68892           0
</event>
<event>
      5   9999  3.79277E-02  4.96589E+01 -1.00000E+00  1.39245E-01
      21    -1     0     0   512   501  0.000000000E+00  0.000000000E+00  6.145032568E+02  6.145032568E+02  0.000000000E+00  0.00000E+00  9.000E+00
      21    -1     0     0   501   502  0.000000000E+00  0.000000000E+00 -4.668012175E+02  4.668012175E+02  0.000000000E+00  0.00000E+00  9.000E+00
      25     1     1     2     0     0  1.260291651E+02  2.758487085E+01 -1.832863681E+02  2.566382050E+02  1.250000000E+02  0.00000E+00  9.000E+00
      25     1     1     2     0     0 -1.275782015E+02 -7.721960008E+01 -2.071683940E+02  2.842231652E+02  1.250000000E+02  0.00000E+00  9.000E+00
      21     1     1     2   512   502  1.549036484E+00  4.963472922E+01  5.381568014E+02  5.404431041E+02  0.000000000E+00  0.00000E+00  9.000E+00
#rwgt            1           1   2.8551744072767522E-002           8       69143           0
</event>
<event>
      5   9999  3.79277E-02  1.05256E+02 -1.00000E+00  1.22836E-01
      21    -1     0     0   502   501  0.000000000E+00  0.000000000E+00  1.682262324E+03  1.682262324E+03  0.000000000E+00  0.00000E+00  9.000E+00
      21    -1     0     0   511   502  0.000000000E+00  0.000000000E+00 -1.654750897E+02  1.654750897E+02  0.000000000E+00  0.00000E+00  9.000E+00
      25     1     1     2     0     0 -1.342996336E+02  1.951912729E+02  1.390636599E+03  1.416203084E+03  1.250000000E+02  0.00000E+00  9.000E+00
      25     1     1     2     0     0  9.860013946E+01 -9.617444186E+01  2.216905483E+02  2.893841909E+02  1.250000000E+02  0.00000E+00  9.000E+00
      21     1     1     2   511   501  3.569949418E+01 -9.901683106E+01 -9.553991350E+01  1.421501382E+02  2.336015456E-06  0.00000E+00  9.000E+00
#rwgt            1           1   3.7233196018231912E-002           8       69341           0
</event>
<event>
      5   9999  3.79277E-02  6.64833E+01 -1.00000E+00  1.32364E-01
      21    -1     0     0   512   501  0.000000000E+00  0.000000000E+00  5.921906303E+02  5.921906303E+02  0.000000000E+00  0.00000E+00  9.000E+00
      21    -1     0     0   501   502  0.000000000E+00  0.000000000E+00 -1.250927192E+02  1.250927192E+02  0.000000000E+00  0.00000E+00  9.000E+00
      25     1     1     2     0     0  1.254831643E+02 -1.358861240E+02  1.947966202E+02  2.962799124E+02  1.250000000E+02  0.00000E+00  9.000E+00
      25     1     1     2     0     0 -1.816059691E+02  1.002453380E+02  1.592559666E+02  2.898574110E+02  1.250000000E+02  0.00000E+00  9.000E+00
      21     1     1     2   512   502  5.612280473E+01  3.564078602E+01  1.130453243E+02  1.311460262E+02  1.907348633E-06  0.00000E+00  9.000E+00
#rwgt            1           1   2.6304282800736902E-002           8       69430           0
</event>
<event>
      5   9999  3.79277E-02  4.71927E+01 -1.00000E+00  1.40523E-01
      21    -1     0     0   502   501  0.000000000E+00  0.000000000E+00  9.799335173E+01  9.799335173E+01  0.000000000E+00  0.00000E+00  9.000E+00
      21    -1     0     0   511   502  0.000000000E+00  0.000000000E+00 -6.314394624E+02  6.314394624E+02  0.000000000E+00  0.00000E+00  9.000E+00
      25     1     1     2     0     0  9.721058949E+01  4.989249760E+01 -1.640616236E+02  2.334103176E+02  1.250000000E+02  0.00000E+00  9.000E+00
      25     1     1     2     0     0 -8.434311570E+01 -4.487835957E+00 -3.055684515E+01  1.539240807E+02  1.250000000E+02  0.00000E+00  9.000E+00
      21     1     1     2   511   501 -1.286747379E+01 -4.540466164E+01 -3.388276419E+02  3.420984158E+02  3.814697266E-06  0.00000E+00  9.000E+00
#rwgt            1           1   4.3852108680766964E-002           8       69539           0
</event>
<event>
      5   9999  3.79277E-02  5.30549E+01 -1.00000E+00  1.37622E-01
      21    -1     0     0   502   501  0.000000000E+00  0.000000000E+00  8.621096591E+02  8.621096591E+02  0.000000000E+00  0.00000E+00  9.000E+00
      21    -1     0     0   501   512  0.000000000E+00  0.000000000E+00 -8.110291153E+01  8.110291153E+01  0.000000000E+00  0.00000E+00  9.000E+00
      25     1     1     2     0     0 -1.529627667E+02  2.284387941E+01  1.986291334E+02  2.810657991E+02  1.250000000E+02  0.00000E+00  9.000E+00
      25     1     1     2     0     0  1.998370477E+02  2.008128179E+00  5.538131151E+02  6.018910571E+02  1.250000000E+02  0.00000E+00  9.000E+00
      21     1     1     2   502   512 -4.687428108E+01 -2.485200758E+01  2.856449917E+01  6.025571442E+01  8.259061849E-07  0.00000E+00  9.000E+00
#rwgt            1           1   3.4931262686455987E-002           8       69623           0
</event>
<event>
      5   9999  3.79277E-02  2.90404E+01 -1.00000E+00  1.54027E-01
      21    -1     0     0   502   501  0.000000000E+00  0.000000000E+00  1.132117457E+02  1.132117457E+02  0.000000000E+00  0.00000E+00  9.000E+00
       1    -1     0     0   501     0  0.000000000E+00  0.000000000E+00 -7.757070970E+02  7.757070970E+02  0.000000000E+00  0.00000E+00  9.000E+00
      25     1     1     2     0     0 -1.127219775E+02  1.968543905E+01 -6.135870433E+01  1.802322150E+02  1.250000000E+02  0.00000E+00  9.000E+00
      25     1     1     2     0     0  1.172451337E+02 -4.837138874E+01 -9.521733888E+01  2.019345296E+02  1.250000000E+02  0.00000E+00  9.000E+00
       1     1     1     2   502     0 -4.523156193E+00  2.868594969E+01 -5.059193080E+02  5.067520980E+02  5.394796609E-06  0.00000E+00  9.000E+00
#rwgt            1           1   4.9072065924324358E-002           8       69710           0
</event>
<event>
      5   9999  3.79277E-02  9.58652E+01 -1.00000E+00  1.24658E-01
      21    -1     0     0   502   501  0.000000000E+00  0.000000000E+00  3.722480858E+02  3.722480858E+02  0.000000000E+00  0.00000E+00  9.000E+00
      21    -1     0     0   501   511  0.000000000E+00  0.000000000E+00 -6.844822710E+02  6.844822710E+02  0.000000000E+00  0.00000E+00  9.000E+00
      25     1     1     2     0     0 -1.518451305E+02 -2.284072471E+02 -2.493934938E+02  3.912146840E+02  1.250000000E+02  0.00000E+00  9.000E+00
      25     1     1     2     0     0  9.356438193E+01  1.522922764E+02  2.538216164E+02  3.346604906E+02  1.250000000E+02  0.00000E+00  9.000E+00
      21     1     1     2   502   511  5.828074862E+01  7.611497068E+01 -3.166623078E+02  3.308551822E+02  3.814697266E-06  0.00000E+00  9.000E+00
#rwgt            1           1   3.2349070300490425E-002           8       69845           0
</event>
<event>
      5   9999  3.79277E-02  5.60455E+00 -1.00000E+00  2.30171E-01
      21    -1     0     0   502   501  0.000000000E+00  0.000000000E+00  1.834607727E+02  1.834607727E+02  0.000000000E+00  0.00000E+00  9.000E+00
      21    -1     0     0   512   502  0.000000000E+00  0.000000000E+00 -3.906551626E+02  3.906551626E+02  0.000000000E+00  0.00000E+00  9.000E+00
      25     1     1     2     0     0 -3.438615594E+01 -1.765931708E+02 -1.316079762E+02  2.555645028E+02  1.250000000E+02  0.00000E+00  9.000E+00
      25     1     1     2     0     0  3.502510525E+01  1.710251622E+02  2.647311167E+01  2.163381375E+02  1.250000000E+02  0.00000E+00  9.000E+00
      21     1     1     2   512   501 -6.389493077E-01  5.568008610E+00 -1.020595253E+02  1.022132950E+02  0.000000000E+00  0.00000E+00  9.000E+00
#rwgt            1           1   4.1382886956589766E-002           8       69947           0
</event>
<event>
      5   9999  3.79277E-02  7.85022E+01 -1.00000E+00  1.28748E-01
      21    -1     0     0   502   511  0.000000000E+00  0.000000000E+00  1.895840183E+03  1.895840183E+03  0.000000000E+00  0.00000E+00  9.000E+00
      21    -1     0     0   501   502  0.000000000E+00  0.000000000E+00 -7.225276426E+01  7.225276426E+01  0.000000000E+00  0.00000E+00  9.000E+00
      25     1     1     2     0     0  1.497869755E+02 -2.102151783E+02  6.799927619E+02  7.379984522E+02  1.250000000E+02  0.00000E+00  9.000E+00
      25     1     1     2     0     0 -1.350900990E+02  1.331009537E+02  2.693592662E+02  3.523416141E+02  1.250000000E+02  0.00000E+00  9.000E+00
      21     1     1     2   501   511 -1.469687642E+01  7.711422459E+01  8.742353911E+02  8.777528814E+02  1.078959322E-05  0.00000E+00  9.000E+00
#rwgt            1           1   4.0019398147217229E-002           8       70390           0
</event>
<event>
      5   9999  3.79277E-02  2.45861E+01 -1.00000E+00  1.59296E-01
      21    -1     0     0   512   501  0.000000000E+00  0.000000000E+00  3.031895166E+02  3.031895166E+02  0.000000000E+00  0.00000E+00  9.000E+00
      21    -1     0     0   501   502  0.000000000E+00  0.000000000E+00 -5.740908613E+02  5.740908613E+02  0.000000000E+00  0.00000E+00  9.000E+00
      25     1     1     2     0     0  1.765530813E+02 -2.490536250E+02  8.032700310E+01  3.395233807E+02  1.250000000E+02  0.00000E+00  9.000E+00
      25     1     1     2     0     0 -1.917421121E+02  2.683867703E+02 -3.666163034E+02  5.087524054E+02  1.250000000E+02  0.00000E+00  9.000E+00
      21     1     1     2   512   502  1.518903082E+01 -1.933314528E+01  1.538795564E+01  2.900459175E+01  6.529361695E-07  0.00000E+00  9.000E+00
#rwgt            1           1  0.12445048368973154                8       70486           0
</event>
<event>
      5   9999  3.79277E-02  3.72814E+01 -1.00000E+00  1.46762E-01
      21    -1     0     0   502   511  0.000000000E+00  0.000000000E+00  7.394498947E+02  7.394498947E+02  0.000000000E+00  0.00000E+00  9.000E+00
      21    -1     0     0   501   502  0.000000000E+00  0.000000000E+00 -8.016511979E+01  8.016511979E+01  0.000000000E+00  0.00000E+00  9.000E+00
      25     1     1     2     0     0  5.931007588E+01 -5.088041513E+01  2.649939789E+02  3.032380428E+02  1.250000000E+02  0.00000E+00  9.000E+00
      25     1     1     2     0     0 -5.147810375E+01  1.443090755E+01  1.672840442E+01  1.369784135E+02  1.250000000E+02  0.00000E+00  9.000E+00
      21     1     1     2   501   511 -7.831972130E+00  3.644950758E+01  3.775623916E+02  3.793985582E+02  0.000000000E+00  0.00000E+00  9.000E+00
#rwgt            1           1   4.4064230735478521E-002           8       70688           0
</event>
<event>
      5   9999  3.79277E-02  4.50837E+01 -1.00000E+00  1.41690E-01
      21    -1     0     0   512   501  0.000000000E+00  0.000000000E+00  5.356578919E+02  5.356578919E+02  0.000000000E+00  0.00000E+00  9.000E+00
      21    -1     0     0   501   502  0.000000000E+00  0.000000000E+00 -2.495989276E+02  2.495989276E+02  0.000000000E+00  0.00000E+00  9.000E+00
      25     1     1     2     0     0 -1.885996055E+01 -1.929854686E+02  3.931592906E+02  4.558490068E+02  1.250000000E+02  0.00000E+00  9.000E+00
      25     1     1     2     0     0 -2.559342196E+01  1.854732610E+02 -1.472782735E+02  2.690190395E+02  1.250000000E+02  0.00000E+00  9.000E+00
      21     1     1     2   512   502  4.445338250E+01  7.512207629E+00  4.017794726E+01  6.038877318E+01  6.743495762E-07  0.00000E+00  9.000E+00
#rwgt            1           1   4.6464178401658118E-002           8       70991           0
</event>
<event>
      5   9999  3.79277E-02  2.71972E+01 -1.00000E+00  1.56059E-01
       1    -1     0     0   502     0  0.000000000E+00  0.000000000E+00  2.997922979E+02  2.997922979E+02  0.000000000E+00  0.00000E+00  9.000E+00
      21    -1     0     0   501   502  0.000000000E+00  0.000000000E+00 -1.548856000E+02  1.548856000E+02  0.000000000E+00  0.00000E+00  9.000E+00
      25     1     1     2     0     0 -4.613231365E+01 -4.995387106E+01  1.537241046E+02  2.094747716E+02  1.250000000E+02  0.00000E+00  9.000E+00
      25     1     1     2     0     0  5.072448486E+01  2.314717313E+01 -8.716458050E+01  1.622696185E+02  1.250000000E+02  0.00000E+00  9.000E+00
       1     1     1     2   501     0 -4.592171211E+00  2.680669793E+01  7.834717382E+01  8.293350792E+01  0.000000000E+00  0.00000E+00  9.000E+00
#rwgt            1           1   4.5507056872787909E-002           8       71171           0
</event>
<event>
      5   9999  3.79277E-02  1.67722E+01 -1.00000E+00  1.72933E-01
      21    -1     0     0   511   501  0.000000000E+00  0.000000000E+00  6.154383902E+02  6.154383902E+02  0.000000000E+00  0.00000E+00  9.000E+00
      21    -1     0     0   501   502  0.000000000E+00  0.000000000E+00 -5.360612949E+01  5.360612949E+01  0.000000000E+00  0.00000E+00  9.000E+00
      25     1     1     2     0     0 -8.807947837E+01  5.424671933E+00  1.089543085E+02  1.878389281E+02  1.250000000E+02  0.00000E+00  9.000E+00
      25     1     1     2     0     0  7.279166384E+01  1.473950501E+00  4.214078413E+02  4.455450231E+02  1.250000000E+02  0.00000E+00  9.000E+00
      21     1     1     2   511   502  1.528781454E+01 -6.898622435E+00  3.147011093E+01  3.566056851E+01  5.840038640E-07  0.00000E+00  9.000E+00
#rwgt            1           1   3.9776834841100644E-002           8       71272           0
</event>
<event>
      5   9999  3.79277E-02  5.79674E+01 -1.00000E+00  1.35508E-01
      21    -1     0     0   512   501  0.000000000E+00  0.000000000E+00  2.221380021E+02  2.221380021E+02  0.000000000E+00  0.00000E+00  9.000E+00
      21    -1     0     0   501   502  0.000000000E+00  0.000000000E+00 -4.674962288E+02  4.674962288E+02  0.000000000E+00  0.00000E+00  9.000E+00
      25     1     1     2     0     0 -3.364406739E+01  1.887394741E+02 -3.405019430E+02  4.102695279E+02  1.250000000E+02  0.00000E+00  9.000E+00
      25     1     1     2     0     0  6.748572762E+01 -1.416760437E+02  5.244548622E+01  2.073691246E+02  1.250000000E+02  0.00000E+00  9.000E+00
      21     1     1     2   512   502 -3.384166023E+01 -4.706343044E+01  4.269823013E+01  7.199557839E+01  4.768371582E-07  0.00000E+00  9.000E+00
#rwgt            1           1   5.3145280625336327E-002           8       71573           0
</event>
<event>
      5   9999  3.79277E-02  2.42340E+01 -1.00000E+00  1.59770E-01
      21    -1     0     0   502   501  0.000000000E+00  0.000000000E+00  7.608049221E+02  7.608049221E+02  0.000000000E+00  0.00000E+00  9.000E+00
      21    -1     0     0   501   511  0.000000000E+00  0.000000000E+00 -6.631016140E+01  6.631016140E+01  0.000000000E+00  0.00000E+00  9.000E+00
      25     1     1     2     0     0 -1.981731795E+01 -8.855093696E+01  5.101674089E+02  5.330382535E+02  1.250000000E+02  0.00000E+00  9.000E+00
      25     1     1     2     0     0  2.381406468E+01  6.464880626E+01  2.130849596E+02  2.564698381E+02  1.250000000E+02  0.00000E+00  9.000E+00
      21     1     1     2   502   511 -3.996746732E+00  2.390213070E+01 -2.875760784E+01  3.760699197E+01  1.581489940E-06  0.00000E+00  9.000E+00
#rwgt            1           1   4.6305872992840315E-002           8       71646           0
</event>
<event>
      5   9999  3.79277E-02  2.37879E+01 -1.00000E+00  1.60385E-01
      21    -1     0     0   502   512  0.000000000E+00  0.000000000E+00  3.451347083E+01  3.451347083E+01  0.000000000E+00  0.00000E+00  9.000E+00
      21    -1     0     0   501   502  0.000000000E+00  0.000000000E+00 -9.160494355E+02  9.160494355E+02  0.000000000E+00  0.00000E+00  9.000E+00
      25     1     1     2     0     0 -6.375202850E+01  7.197378990E+01 -4.913401245E+02  5.160277760E+02  1.250000000E+02  0.00000E+00  9.000E+00
      25     1     1     2     0     0  8.705440061E+01 -6.719231999E+01 -3.543728963E+02  3.915334292E+02  1.250000000E+02  0.00000E+00  9.000E+00
      21     1     1     2   501   512 -2.330237211E+01 -4.781469912E+00 -3.582294380E+01  4.300170116E+01  1.066240300E-06  0.00000E+00  9.000E+00
#rwgt            1           1   3.9592760255766260E-002           8       71867           0
</event>
<event>
      5   9999  3.79277E-02  3.02966E+01 -1.00000E+00  1.52744E-01
      21    -1     0     0   502   501  0.000000000E+00  0.000000000E+00  7.266958031E+01  7.266958031E+01  0.000000000E+00  0.00000E+00  9.000E+00
      -3    -1     0     0     0   502  0.000000000E+00  0.000000000E+00 -8.936251301E+02  8.936251301E+02  0.000000000E+00  0.00000E+00  9.000E+00
      25     1     1     2     0     0 -1.247653390E+02  8.962736979E+01 -1.723190594E+02  2.625229770E+02  1.250000000E+02  0.00000E+00  9.000E+00
      25     1     1     2     0     0  1.512646897E+02 -1.043131094E+02 -4.399006396E+02  4.928486623E+02  1.250000000E+02  0.00000E+00  9.000E+00
      -3     1     1     2     0   501 -2.649935074E+01  1.468573956E+01 -2.087358507E+02  2.109230711E+02  3.814697266E-06  0.00000E+00  9.000E+00
#rwgt            1           1   3.9208083560519594E-002           8       71992           0
</event>
<event>
      5   9999  3.79277E-02  1.90399E+01 -1.00000E+00  1.68151E-01
      21    -1     0     0   502   501  0.000000000E+00  0.000000000E+00  5.224825730E+01  5.224825730E+01  0.000000000E+00  0.00000E+00  9.000E+00
      21    -1     0     0   501   511  0.000000000E+00  0.000000000E+00 -1.537192579E+03  1.537192579E+03  0.000000000E+00  0.00000E+00  9.000E+00
      25     1     1     2     0     0  8.626960095E+01 -9.796900657E+01 -1.593345362E+02  2.409416210E+02  1.250000000E+02  0.00000E+00  9.000E+00
      25     1     1     2     0     0 -6.767191031E+01  1.020486266E+02 -6.656465945E+02  6.882614318E+02  1.250000000E+02  0.00000E+00  9.000E+00
      21     1     1     2   502   511 -1.859769064E+01 -4.079620083E+00 -6.599631912E+02  6.602377838E+02  7.629394531E-06  0.00000E+00  9.000E+00
#rwgt            1           1  0.18266341077727427                8       72234           0
</event>
<event>
      5   9999  4.82762E-02  8.64971E+01 -1.00000E+00  1.26729E-01
      21    -1     0     0   512   501  0.000000000E+00  0.000000000E+00  1.465054296E+03  1.465054296E+03  0.000000000E+00  0.00000E+00  9.000E+00
      21    -1     0     0   501   502  0.000000000E+00  0.000000000E+00 -6.357753683E+01  6.357753683E+01  0.000000000E+00  0.00000E+00  9.000E+00
      25     1     1     2     0     0 -1.239188455E+02  1.966779064E+02  7.018016998E+02  7.497924413E+02  1.250000000E+02  0.00000E+00  9.000E+00
      25     1     1     2     0     0  3.838915951E+01 -1.837771543E+02  3.336612547E+02  4.027438427E+02  1.250000000E+02  0.00000E+00  9.000E+00
      21     1     1     2   512   502  8.552968603E+01 -1.290075210E+01  3.660138045E+02  3.760955486E+02  5.394796609E-06  0.00000E+00  9.000E+00
#rwgt            1           1  0.35479243957011142                8       72512           0
</event>
<event>
      5   9999  3.79277E-02  7.53475E+01 -1.00000E+00  1.29622E-01
      21    -1     0     0   502   511  0.000000000E+00  0.000000000E+00  9.518727491E+01  9.518727491E+01  0.000000000E+00  0.00000E+00  9.000E+00
      21    -1     0     0   501   502  0.000000000E+00  0.000000000E+00 -8.860199534E+02  8.860199534E+02  0.000000000E+00  0.00000E+00  9.000E+00
      25     1     1     2     0     0 -1.280103458E+02 -6.660759014E+01 -7.226192604E+02  7.474134165E+02  1.250000000E+02  0.00000E+00  9.000E+00
      25     1     1     2     0     0  5.638403747E+01  4.322138070E+01 -2.213168320E+01  1.454718489E+02  1.250000000E+02  0.00000E+00  9.000E+00
      21     1     1     2   501   511  7.162630829E+01  2.338620944E+01 -4.608173487E+01  8.832196284E+01  6.743495762E-07  0.00000E+00  9.000E+00
#rwgt            1           1   3.0440043021667317E-002           8       72654           0
</event>
<event>
      5   9999  3.79277E-02  2.89473E+01 -1.00000E+00  1.54125E-01
      21    -1     0     0   502   501  0.000000000E+00  0.000000000E+00  3.395732402E+03  3.395732402E+03  0.000000000E+00  0.00000E+00  9.000E+00
      21    -1     0     0   512   502  0.000000000E+00  0.000000000E+00 -3.232598391E+01  3.232598391E+01  0.000000000E+00  0.00000E+00  9.000E+00
      25     1     1     2     0     0  5.016593278E+01  2.604197298E+02  2.300146693E+03  2.318757181E+03  1.250000000E+02  0.00000E+00  9.000E+00
      25     1     1     2     0     0 -7.590550801E+01 -2.471751011E+02  9.564626931E+02  9.986506196E+02  1.250000000E+02  0.00000E+00  9.000E+00
      21     1     1     2   512   501  2.573957523E+01 -1.324462871E+01  1.067970324E+02  1.106505854E+02  0.000000000E+00  0.00000E+00  9.000E+00
#rwgt            1           1   2.6419143794431155E-002           8       72782           0
</event>
<event>
      5   9999  3.79277E-02  6.79782E+01 -1.00000E+00  1.31869E-01
      21    -1     0     0   502   501  0.000000000E+00  0.000000000E+00  1.234981825E+02  1.234981825E+02  0.000000000E+00  0.00000E+00  9.000E+00
       2    -1     0     0   501     0  0.000000000E+00  0.000000000E+00 -2.125477894E+03  2.125477894E+03  0.000000000E+00  0.00000E+00  9.000E+00
      25     1     1     2     0     0  5.398136222E+01 -1.766162418E+02 -1.603920268E+02  2.746959894E+02  1.250000000E+02  0.00000E+00  9.000E+00
      25     1     1     2     0     0 -2.467602128E+01  1.152792328E+02 -4.663333694E+01  1.780389723E+02  1.250000000E+02  0.00000E+00  9.000E+00
       2     1     1     2   502     0 -2.930534094E+01  6.133700900E+01 -1.794954347E+03  1.796241114E+03  2.157918644E-05  0.00000E+00  9.000E+00
#rwgt            1           1   4.1261423901119240E-002           8       72971           0
</event>
<event>
      5   9999  3.79277E-02  1.30776E+02 -1.00000E+00  1.18804E-01
      21    -1     0     0   502   511  0.000000000E+00  0.000000000E+00  2.626144924E+03  2.626144924E+03  0.000000000E+00  0.00000E+00  9.000E+00
      21    -1     0     0   501   502  0.000000000E+00  0.000000000E+00 -2.849419265E+01  2.849419265E+01  0.000000000E+00  0.00000E+00  9.000E+00
      25     1     1     2     0     0 -6.347174948E+01 -1.042642875E+02  9.003216663E+02  9.171171176E+02  1.250000000E+02  0.00000E+00  9.000E+00
      25     1     1     2     0     0 -2.837035997E+01  1.973637252E+02  9.417313625E+02  9.706906183E+02  1.250000000E+02  0.00000E+00  9.000E+00
      21     1     1     2   501   511  9.184210945E+01 -9.309943775E+01  7.555977029E+02  7.668313811E+02  1.078959322E-05  0.00000E+00  9.000E+00
#rwgt            1           1  0.11451959117028672                8       73091           0
</event>
<event>
      5   9999  3.79277E-02  1.26896E+01 -1.00000E+00  1.84512E-01
      21    -1     0     0   502   501  0.000000000E+00  0.000000000E+00  2.929938989E+02  2.929938989E+02  0.000000000E+00  0.00000E+00  9.000E+00
      21    -1     0     0   501   512  0.000000000E+00  0.000000000E+00 -2.754080794E+02  2.754080794E+02  0.000000000E+00  0.00000E+00  9.000E+00
      25     1     1     2     0     0  1.323349545E+02 -7.461729325E+01  1.989584358E+02  2.798030375E+02  1.250000000E+02  0.00000E+00  9.000E+00
      25     1     1     2     0     0 -1.376599026E+02  6.309897733E+01 -1.295478665E+02  2.352432346E+02  1.250000000E+02  0.00000E+00  9.000E+00
      21     1     1     2   502   512  5.324948145E+00  1.151831592E+01 -5.182474990E+01  5.335570613E+01  6.743495762E-07  0.00000E+00  9.000E+00
#rwgt            1           1   3.8476554560117934E-002           8       73231           0
</event>
<event>
      5   9999  3.79277E-02  2.42842E+01 -1.00000E+00  1.59702E-01
       2    -1     0     0   502     0  0.000000000E+00  0.000000000E+00  5.503822070E+02  5.503822070E+02  0.000000000E+00  0.00000E+00  9.000E+00
      21    -1     0     0   501   502  0.000000000E+00  0.000000000E+00 -1.043416903E+02  1.043416903E+02  0.000000000E+00  0.00000E+00  9.000E+00
      25     1     1     2     0     0  1.210926518E+02 -6.416785094E+01  3.123415330E+02  3.632673625E+02  1.250000000E+02  0.00000E+00  9.000E+00
      25     1     1     2     0     0 -1.223791356E+02  3.991772837E+01  2.630096151E+01  1.813472317E+02  1.250000000E+02  0.00000E+00  9.000E+00
       2     1     1     2   501     0  1.286483744E+00  2.425012258E+01  1.073980221E+02  1.101093031E+02  0.000000000E+00  0.00000E+00  9.000E+00
#rwgt            1           1   2.8690526965022025E-002           8       73475           0
</event>
<event>
      5   9999  3.79277E-02  2.31821E+01 -1.00000E+00  1.61247E-01
      21    -1     0     0   502   511  0.000000000E+00  0.000000000E+00  2.420215417E+02  2.420215417E+02  0.000000000E+00  0.00000E+00  9.000E+00
      21    -1     0     0   501   502  0.000000000E+00  0.000000000E+00 -3.423420798E+02  3.423420798E+02  0.000000000E+00  0.00000E+00  9.000E+00
      25     1     1     2     0     0  6.009232578E+01  2.440938616E+01  7.339374035E+01  1.588034851E+02  1.250000000E+02  0.00000E+00  9.000E+00
      25     1     1     2     0     0 -8.254997459E+01 -1.865934226E+01 -2.792867292E+02  3.174724342E+02  1.250000000E+02  0.00000E+00  9.000E+00
      21     1     1     2   501   511  2.245764881E+01 -5.750043903E+00  1.055724508E+02  1.080877022E+02  0.000000000E+00  0.00000E+00  9.000E+00
#rwgt            1           1   4.0029718604891983E-002           8       73675           0
</event>
<event>
      5   9999  3.79277E-02  6.10807E+01 -1.00000E+00  1.34290E-01
      21    -1     0     0   512   501  0.000000000E+00  0.000000000E+00  2.822208368E+02  2.822208368E+02  0.000000000E+00  0.00000E+00  9.000E+00
      21    -1     0     0   501   502  0.000000000E+00  0.000000000E+00 -2.382140464E+02  2.382140464E+02  0.000000000E+00  0.00000E+00  9.000E+00
      25     1     1     2     0     0 -9.659012400E+01  1.423617955E+02  2.204630677E+01  2.137932939E+02  1.250000000E+02  0.00000E+00  9.000E+00
      25     1     1     2     0     0  1.237968028E+02 -8.767500421E+01 -5.899662354E+01  2.052270848E+02  1.250000000E+02  0.00000E+00  9.000E+00
      21     1     1     2   512   502 -2.720667882E+01 -5.468679129E+01  8.095710723E+01  1.014145045E+02  1.348699152E-06  0.00000E+00  9.000E+00
#rwgt            1           1   5.0166953977399453E-002           8       73813           0
</event>
<event>
      5   9999  3.79277E-02  2.14615E+01 -1.00000E+00  1.63881E-01
      21    -1     0     0   502   501  0.000000000E+00  0.000000000E+00  3.810630193E+02  3.810630193E+02  0.000000000E+00  0.00000E+00  9.000E+00
      21    -1     0     0   511   502  0.000000000E+00  0.000000000E+00 -2.027020780E+02  2.027020780E+02  0.000000000E+00  0.00000E+00  9.000E+00
      25     1     1     2     0     0  1.302978425E+02  9.600229518E+01  2.532888233E+02  3.255367820E+02  1.250000000E+02  0.00000E+00  9.000E+00
      25     1     1     2     0     0 -1.488694207E+02 -8.524627696E+01 -3.817034855E+01  2.156641084E+02  1.250000000E+02  0.00000E+00  9.000E+00
      21     1     1     2   511   501  1.857157826E+01 -1.075601822E+01 -3.675753340E+01  4.256420689E+01  4.768371582E-07  0.00000E+00  9.000E+00
#rwgt            1           1  0.11578599007848382                8       74020           0
</event>
<event>
      5   9999  3.79277E-02  1.03855E+02 -1.00000E+00  1.23094E-01
      21    -1     0     0   502   501  0.000000000E+00  0.000000000E+00  3.023114588E+02  3.023114588E+02  0.000000000E+00  0.00000E+00  9.000E+00
      21    -1     0     0   501   512  0.000000000E+00  0.000000000E+00 -1.872394415E+02  1.872394415E+02  0.000000000E+00  0.00000E+00  9.000E+00
      25     1     1     2     0     0  4.708122453E+01 -6.965156923E+00  1.597245444E+02  2.083316711E+02  1.250000000E+02  0.00000E+00  9.000E+00
      25     1     1     2     0     0 -4.652945463E+01  1.108183587E+02 -2.071855499E+01  1.746423697E+02  1.250000000E+02  0.00000E+00  9.000E+00
      21     1     1     2   502   512 -5.517699008E-01 -1.038532017E+02 -2.393397204E+01  1.065768595E+02  1.118282261E-06  0.00000E+00  9.000E+00
#rwgt            1           1   4.4300704480967207E-002           8       74237           0
</event>
<event>
      5   9999  3.79277E-02  5.90863E+01 -1.00000E+00  1.35060E-01
      21    -1     0     0   502   511  0.000000000E+00  0.000000000E+00  2.468703337E+02  2.468703337E+02  0.000000000E+00  0.00000E+00  9.000E+00
      21    -1     0     0   501   502  0.000000000E+00  0.000000000E+00 -1.930478947E+02  1.930478947E+02  0.000000000E+00  0.00000E+00  9.000E+00
      25     1     1     2     0     0  1.203322690E+02  4.686636753E+01 -1.113566923E+01  1.800703043E+02  1.250000000E+02  0.00000E+00  9.000E+00
      25     1     1     2     0     0 -1.067095309E+02  1.062810468E+01 -9.290616119E+00  1.649581648E+02  1.250000000E+02  0.00000E+00  9.000E+00
      21     1     1     2   501   511 -1.362273819E+01 -5.749447221E+01  7.424872442E+01  9.488975924E+01  1.907348633E-06  0.00000E+00  9.000E+00
#rwgt            1           1   4.6470626479786628E-002           8       74477           0
</event>
<event>
      5   9999  3.79277E-02  2.50704E+01 -1.00000E+00  1.58659E-01
       2    -1     0     0   502     0  0.000000000E+00  0.000000000E+00  3.732440741E+03  3.732440741E+03  0.000000000E+00  0.00000E+00  9.000E+00
      21    -1     0     0   501   502  0.000000000E+00  0.000000000E+00 -3.895914973E+01  3.895914973E+01  0.000000000E+00  0.00000E+00  9.000E+00
      25     1     1     2     0     0  1.883018335E+02  2.420306363E+02  1.219315407E+03  1.263483863E+03  1.250000000E+02  0.00000E+00  9.000E+00
      25     1     1     2     0     0 -1.988423563E+02 -2.192837265E+02  1.528109768E+03  1.561527489E+03  1.250000000E+02  0.00000E+00  9.000E+00
       2     1     1     2   501     0  1.054052283E+01 -2.274690981E+01  9.460564152E+02  9.463885382E+02  1.078959322E-05  0.00000E+00  9.000E+00
#rwgt            1           1  0.28247717589443794                8       74570           0
</event>
<event>
      5   9999  3.79277E-02  4.03210E+01 -1.00000E+00  1.44625E-01
      21    -1     0     0   502   501  0.000000000E+00  0.000000000E+00  7.426968519E+02  7.426968519E+02  0.000000000E+00  0.00000E+00  9.000E+00
      21    -1     0     0   511   502  0.000000000E+00  0.000000000E+00 -1.523193209E+02  1.523193209E+02  0.000000000E+00  0.00000E+00  9.000E+00
      25     1     1     2     0     0 -8.552713414E+01  9.958723515E+01  6.102233573E+02  6.365768248E+02  1.250000000E+02  0.00000E+00  9.000E+00
      25     1     1     2     0     0  1.255555360E+02 -1.044356714E+02  1.351927785E+01  2.061037917E+02  1.250000000E+02  0.00000E+00  9.000E+00
      21     1     1     2   511   501 -4.002840183E+01  4.848436262E+00 -3.336510406E+01  5.233555633E+01  1.348699152E-06  0.00000E+00  9.000E+00
#rwgt            1           1   3.3823791944732659E-002           8       74842           0
</event>
<event>
      5   9999  3.79277E-02  4.43060E+01 -1.00000E+00  1.42139E-01
      21    -1     0     0   502   501  0.000000000E+00  0.000000000E+00  2.321224846E+02  2.321224846E+02  0.000000000E+00  0.00000E+00  9.000E+00
      21    -1     0     0   501   512  0.000000000E+00  0.000000000E+00 -4.426926875E+02  4.426926875E+02  0.000000000E+00  0.00000E+00  9.000E+00
      25     1     1     2     0     0 -5.830463260E+01 -9.043936490E+01 -1.595244839E+02  2.294597348E+02  1.250000000E+02  0.00000E+00  9.000E+00
      25     1     1     2     0     0  1.400482389E+01  8.970015202E+01  1.642845692E+02  2.255142391E+02  1.250000000E+02  0.00000E+00  9.000E+00
      21     1     1     2   502   512  4.429980871E+01  7.392128819E-01 -2.153302881E+02  2.198411983E+02  2.697398305E-06  0.00000E+00  9.000E+00
#rwgt            1           1   4.2375873102601547E-002           8       75102           0
</event>
<event>
      5   9999  3.79277E-02  2.93016E+01 -1.00000E+00  1.53754E-01
      21    -1     0     0   502   511  0.000000000E+00  0.000000000E+00  1.562718346E+02  1.562718346E+02  0.000000000E+00  0.00000E+00  9.000E+00
      21    -1     0     0   501   502  0.000000000E+00  0.000000000E+00 -3.748015224E+02  3.748015224E+02  0.000000000E+00  0.00000E+00  9.000E+00
      25     1     1     2     0     0 -1.336488356E+02  1.718208914E+01 -2.704437929E+02  3.269894197E+02  1.250000000E+02  0.00000E+00  9.000E+00
      25     1     1     2     0     0  1.096006549E+02 -4.407803970E-01  3.383430534E+01  1.696533468E+02  1.250000000E+02  0.00000E+00  9.000E+00
      21     1     1     2   501   511  2.404818066E+01 -1.674130874E+01  1.807979971E+01  3.443059060E+01  7.152557373E-07  0.00000E+00  9.000E+00
#rwgt            1           1   3.1031898718747539E-002           8       75288           0
</event>
<event>
      5   9999  3.79277E-02  1.53009E+02 -1.00000E+00  1.16053E-01
      21    -1     0     0   512   501  0.000000000E+00  0.000000000E+00  2.166243639E+02  2.166243639E+02  0.000000000E+00  0.00000E+00  9.000E+00
      21    -1     0     0   501   502  0.000000000E+00  0.000000000E+00 -5.723659173E+02  5.723659173E+02  0.000000000E+00  0.00000E+00  9.000E+00
      25     1     1     2     0     0  1.832590023E+02  2.303886168E+01 -4.315863459E+02  4.858049249E+02  1.250000000E+02  0.00000E+00  9.000E+00
      25     1     1     2     0     0 -3.262703796E+01  3.826483425E+00  7.647483978E+01  1.501751201E+02  1.250000000E+02  0.00000E+00  9.000E+00
      21     1     1     2   512   502 -1.506319643E+02 -2.686534511E+01 -6.300473474E-01  1.530102362E+02  2.262978178E-06  0.00000E+00  9.000E+00
#rwgt            2          11   2.4230026605197622E-003           8       75430           0
</event>
<event>
      5   9999 -3.79277E-02  4.38860E+01 -1.00000E+00  1.42386E-01
      21    -1     0     0   502   501  0.000000000E+00  0.000000000E+00  1.966881068E+02  1.966881068E+02  0.000000000E+00  0.00000E+00  9.000E+00
      -4    -1     0     0     0   502  0.000000000E+00  0.000000000E+00 -6.195753607E+02  6.195753607E+02  0.000000000E+00  0.00000E+00  9.000E+00
      25     1     1     2     0     0 -1.401589135E+02 -2.115225392E+02 -2.119410136E+02  3.534548046E+02  1.250000000E+02  0.00000E+00  9.000E+00
      25     1     1     2     0     0  9.874442586E+01  1.970028520E+02 -6.213316209E+00  2.534249211E+02  1.250000000E+02  0.00000E+00  9.000E+00
      -4     1     1     2     0   501  4.141448769E+01  1.451968716E+01 -2.047329241E+02  2.093837417E+02  2.697398305E-06  0.00000E+00  9.000E+00
#rwgt            1           1  -4.2315401912208700E-002           8       75510           0
</event>
<event>
      5   9999  3.79277E-02  1.09072E+02 -1.00000E+00  1.22155E-01
      21    -1     0     0   502   511  0.000000000E+00  0.000000000E+00  7.005172574E+02  7.005172574E+02  0.000000000E+00  0.00000E+00  9.000E+00
      21    -1     0     0   501   502  0.000000000E+00  0.000000000E+00 -1.658370256E+02  1.658370256E+02  0.000000000E+00  0.00000E+00  9.000E+00
      25     1     1     2     0     0  2.246875871E+01  1.681625001E+02  3.200703094E+02  3.832146586E+02  1.250000000E+02  0.00000E+00  9.000E+00
      25     1     1     2     0     0 -9.166504077E+00 -5.990490193E+01 -8.598087521E+01  1.633717631E+02  1.250000000E+02  0.00000E+00  9.000E+00
      21     1     1     2   501   511 -1.330225463E+01 -1.082575982E+02  3.005907976E+02  3.197678613E+02  3.814697266E-06  0.00000E+00  9.000E+00
#rwgt            1           1   4.3704563889624411E-002           8       75717           0
</event>
<event>
      5   9999  3.79277E-02  2.97326E+01 -1.00000E+00  1.53310E-01
      21    -1     0     0   502   501  0.000000000E+00  0.000000000E+00  4.203736059E+02  4.203736059E+02  0.000000000E+00  0.00000E+00  9.000E+00
      21    -1     0     0   501   512  0.000000000E+00  0.000000000E+00 -1.638181547E+02  1.638181547E+02  0.000000000E+00  0.00000E+00  9.000E+00
      25     1     1     2     0     0 -8.383277482E+01 -8.753269174E+01  3.322391021E+02  3.750969571E+02  1.250000000E+02  0.00000E+00  9.000E+00
      25     1     1     2     0     0  7.851452716E+01  5.827959143E+01 -8.209702133E+01  1.786783777E+02  1.250000000E+02  0.00000E+00  9.000E+00
      21     1     1     2   502   512  5.318247655E+00  2.925310032E+01  6.413370514E+00  3.041642579E+01  7.586432732E-07  0.00000E+00  9.000E+00
#rwgt            1           1   4.7586619400025197E-002           8       75779           0
</event>
<event>
      5   9999  3.79277E-02  7.51440E+01 -1.00000E+00  1.29680E-01
      21    -1     0     0   511   501  0.000000000E+00  0.000000000E+00  1.138145466E+02  1.138145466E+02  0.000000000E+00  0.00000E+00  9.000E+00
      21    -1     0     0   501   502  0.000000000E+00  0.000000000E+00 -3.918847052E+02  3.918847052E+02  0.000000000E+00  0.00000E+00  9.000E+00
      25     1     1     2     0     0  8.883355723E+00 -1.045584189E+02 -7.555063879E+01  1.798451445E+02  1.250000000E+02  0.00000E+00  9.000E+00
      25     1     1     2     0     0 -5.599969807E+01  4.602066704E+01 -2.048383851E+02  2.506743544E+02  1.250000000E+02  0.00000E+00  9.000E+00
      21     1     1     2   511   502  4.711634234E+01  5.853775184E+01  2.318865323E+00  7.517975288E+01  1.429269172E-07  0.00000E+00  9.000E+00
#rwgt            1           1   4.8754946637014365E-002           8       75926           0
</event>
<event>
      5   9999  3.79277E-02  2.76131E+01 -1.00000E+00  1.55583E-01
      21    -1     0     0   502   501  0.000000000E+00  0.000000000E+00  7.385363962E+01  7.385363962E+01  0.000000000E+00  0.00000E+00  9.000E+00
      21    -1     0     0   501   512  0.000000000E+00  0.000000000E+00 -3.714596990E+02  3.714596990E+02  0.000000000E+00  0.00000E+00  9.000E+00
      25     1     1     2     0     0  2.175031197E+01 -6.385665624E+01 -8.747613114E+01  1.668167322E+02  1.250000000E+02  0.00000E+00  9.000E+00
      25     1     1     2     0     0 -1.395455276E+01  9.034649939E+01 -1.837934112E+02  2.403377571E+02  1.250000000E+02  0.00000E+00  9.000E+00
      21     1     1     2   502   512 -7.795759209E+00 -2.648984315E+01 -2.633651703E+01  3.815884931E+01  6.743495762E-07  0.00000E+00  9.000E+00
#rwgt            1           1  0.10208587584741417                8       76002           0
</event>
<event>
      5   9999  3.79277E-02  9.10167E+00 -1.00000E+00  2.00604E-01
      21    -1     0     0   502   511  0.000000000E+00  0.000000000E+00  7.474180888E+02  7.474180888E+02  0.000000000E+00  0.00000E+00  9.000E+00
      21    -1     0     0   501   502  0.000000000E+00  0.000000000E+00 -2.809853247E+02  2.809853247E+02  0.000000000E+00  0.00000E+00  9.000E+00
      25     1     1     2     0     0  1.148796515E+01 -1.550229567E+01  1.516350192E+01  1.273861307E+02  1.250000000E+02  0.00000E+00  9.000E+00
      25     1     1     2     0     0 -1.463311111E+01  6.961303935E+00 -2.071773225E+02  2.425077951E+02  1.250000000E+02  0.00000E+00  9.000E+00
      21     1     1     2   501   511  3.145145963E+00  8.540991731E+00  6.584465847E+02  6.585094877E+02  0.000000000E+00  0.00000E+00  9.000E+00
#rwgt            1           1   3.0170917334295624E-002           8       76116           0
</event>
<event>
      5   9999  3.79277E-02  4.46414E+01 -1.00000E+00  1.41944E-01
      21    -1     0     0   512   501  0.000000000E+00  0.000000000E+00  8.991651669E+02  8.991651669E+02  0.000000000E+00  0.00000E+00  9.000E+00
      21    -1     0     0   501   502  0.000000000E+00  0.000000000E+00 -2.489328066E+02  2.489328066E+02  0.000000000E+00  0.00000E+00  9.000E+00
      25     1     1     2     0     0 -2.689659891E+02 -1.509117148E+02 -4.362707894E+01  3.356268329E+02  1.250000000E+02  0.00000E+00  9.000E+00
      25     1     1     2     0     0  3.135778764E+02  1.492873500E+02  6.608721644E+02  7.569642100E+02  1.250000000E+02  0.00000E+00  9.000E+00
      21     1     1     2   512   502 -4.461188734E+01  1.624364844E+00  3.298727472E+01  5.550693062E+01  8.259061849E-07  0.00000E+00  9.000E+00
#rwgt            1           1  0.12747988169547217                8       76501           0
</event>
<event>
      5   9999  3.79277E-02  1.63558E+02 -1.00000E+00  1.14923E-01
      21    -1     0     0   502   501  0.000000000E+00  0.000000000E+00  3.562738448E+02  3.562738448E+02  0.000000000E+00  0.00000E+00  9.000E+00
      21    -1     0     0   501   511  0.000000000E+00  0.000000000E+00 -1.869007172E+03  1.869007172E+03  0.000000000E+00  0.00000E+00  9.000E+00
      25     1     1     2     0     0  2.100640007E+02 -3.723372309E+02 -1.220715410E+01  4.455736892E+02  1.250000000E+02  0.00000E+00  9.000E+00
      25     1     1     2     0     0 -2.785145062E+02  2.237913562E+02 -1.311489524E+02  4.005969907E+02  1.250000000E+02  0.00000E+00  9.000E+00
      21     1     1     2   502   511  6.845050550E+01  1.485458747E+02 -1.369377221E+03  1.379110337E+03  2.157918644E-05  0.00000E+00  9.000E+00
#rwgt            1           1   4.8457844880696203E-002           8       76678           0
</event>
<event>
      5   9999  3.79277E-02  3.31925E+01 -1.00000E+00  1.50051E-01
      21    -1     0     0   512   501  0.000000000E+00  0.000000000E+00  1.091479546E+02  1.091479546E+02  0.000000000E+00  0.00000E+00  9.000E+00
      21    -1     0     0   501   502  0.000000000E+00  0.000000000E+00 -3.046874933E+02  3.046874933E+02  0.000000000E+00  0.00000E+00  9.000E+00
      25     1     1     2     0     0  1.114542756E+02 -4.732109762E+01 -1.262631250E+02  2.150086476E+02  1.250000000E+02  0.00000E+00  9.000E+00
      25     1     1     2     0     0 -7.925735308E+01  3.925280039E+01 -5.517252705E+01  1.627621519E+02  1.250000000E+02  0.00000E+00  9.000E+00
      21     1     1     2   512   502 -3.219692248E+01  8.068297223E+00 -1.410388668E+01  3.606464830E+01  3.371747881E-07  0.00000E+00  9.000E+00
#rwgt            1           1   4.0667274327950947E-002           8       76763           0
</event>
<event>
      5   9999  3.79277E-02  6.91803E+01 -1.00000E+00  1.31480E-01
      21    -1     0     0   502   501  0.000000000E+00  0.000000000E+00  1.277411344E+02  1.277411344E+02  0.000000000E+00  0.00000E+00  9.000E+00
      21    -1     0     0   501   511  0.000000000E+00  0.000000000E+00 -6.693360351E+02  6.693360351E+02  0.000000000E+00  0.00000E+00  9.000E+00
      25     1     1     2     0     0 -1.102972396E+02  1.093266820E+02 -2.003322469E+02  2.826230946E+02  1.250000000E+02  0.00000E+00  9.000E+00
      25     1     1     2     0     0  8.840192616E+01 -1.749506945E+02 -8.263067204E+01  2.467295564E+02  1.250000000E+02  0.00000E+00  9.000E+00
      21     1     1     2   502   511  2.189531343E+01  6.562401252E+01 -2.586319818E+02  2.677245184E+02  3.814697266E-06  0.00000E+00  9.000E+00
#rwgt            1           1   2.9919538737090693E-002           8       76915           0
</event>
<event>
      5   9999  3.79277E-02  4.76665E+01 -1.00000E+00  1.40270E-01
      21    -1     0     0   502   501  0.000000000E+00  0.000000000E+00  2.090944753E+02  2.090944753E+02  0.000000000E+00  0.00000E+00  9.000E+00
      21    -1     0     0   501   512  0.000000000E+00  0.000000000E+00 -4.422802187E+02  4.422802187E+02  0.000000000E+00  0.00000E+00  9.000E+00
      25     1     1     2     0     0 -1.110355589E+02 -1.448693607E+02 -8.484031436E+00  2.213888114E+02  1.250000000E+02  0.00000E+00  9.000E+00
      25     1     1     2     0     0  1.449549008E+02  1.783593105E+02 -7.395013712E+01  2.718778948E+02  1.250000000E+02  0.00000E+00  9.000E+00
      21     1     1     2   502   512 -3.391934186E+01 -3.348994983E+01 -1.507515748E+02  1.581079878E+02  0.000000000E+00  0.00000E+00  9.000E+00
#rwgt            1           1   4.2900864106803362E-002           8       76963           0
</event>
<event>
      5   9999  3.79277E-02  1.91271E+01 -1.00000E+00  1.67984E-01
      21    -1     0     0   502   501  0.000000000E+00  0.000000000E+00  7.466066755E+02  7.466066755E+02  0.000000000E+00  0.00000E+00  9.000E+00
      21    -1     0     0   511   502  0.000000000E+00  0.000000000E+00 -9.278525244E+01  9.278525244E+01  0.000000000E+00  0.00000E+00  9.000E+00
      25     1     1     2     0     0  1.375037802E+02  7.678235748E+01  5.528156374E+02  5.882456536E+02  1.250000000E+02  0.00000E+00  9.000E+00
      25     1     1     2     0     0 -1.547875278E+02 -6.858982479E+01  8.854107494E+01  2.283161509E+02  1.250000000E+02  0.00000E+00  9.000E+00
      21     1     1     2   511   501  1.728374762E+01 -8.192532690E+00  1.246471071E+01  2.283012345E+01  3.371747881E-07  0.00000E+00  9.000E+00
#rwgt            1           1   4.0681720842646388E-002           8       77117           0
</event>
<event>
      5   9999  3.79277E-02  2.37772E+01 -1.00000E+00  1.60400E-01
      21    -1     0     0   502   501  0.000000000E+00  0.000000000E+00  4.162778137E+01  4.162778137E+01  0.000000000E+00  0.00000E+00  9.000E+00
      21    -1     0     0   501   512  0.000000000E+00  0.000000000E+00 -1.272504911E+03  1.272504911E+03  0.000000000E+00  0.00000E+00  9.000E+00
      25     1     1     2     0     0 -9.652583809E+01  3.009318093E+01 -2.521527522E+02  2.990465640E+02  1.250000000E+02  0.00000E+00  9.000E+00
      25     1     1     2     0     0  1.188548613E+02 -3.826443023E+01 -4.173328604E+02  4.531913073E+02  1.250000000E+02  0.00000E+00  9.000E+00
      21     1     1     2   502   512 -2.232902322E+01  8.171249299E+00 -5.613915167E+02  5.618948208E+02  7.629394531E-06  0.00000E+00  9.000E+00
#rwgt            1           1   5.2198651769801631E-002           8       77351           0
</event>
<event>
      5   9999  3.79277E-02  2.41478E+02 -1.00000E+00  1.08747E-01
       2    -1     0     0   502     0  0.000000000E+00  0.000000000E+00  2.256197951E+03  2.256197951E+03  0.000000000E+00  0.00000E+00  9.000E+00
      21    -1     0     0   501   502  0.000000000E+00  0.000000000E+00 -1.693603225E+02  1.693603225E+02  0.000000000E+00  0.00000E+00  9.000E+00
      25     1     1     2     0     0  1.825322780E+02  1.117132396E+02  2.873974388E+01  2.494972009E+02  1.250000000E+02  0.00000E+00  9.000E+00
      25     1     1     2     0     0  5.137185016E+01 -1.717180480E+02  1.817138651E+02  2.842025400E+02  1.250000000E+02  0.00000E+00  9.000E+00
       2     1     1     2   501     0 -2.339041281E+02  6.000480842E+01  1.876384019E+03  1.891858532E+03  3.051757812E-05  0.00000E+00  9.000E+00
#rwgt            1           1   2.0004985148151078E-002           8       77503           0
</event>
<event>
      5   9999  3.79277E-02  1.59879E+02 -1.00000E+00  1.15306E-01
      21    -1     0     0   502   501  0.000000000E+00  0.000000000E+00  9.737374572E+02  9.737374572E+02  0.000000000E+00  0.00000E+00  9.000E+00
      21    -1     0     0   501   511  0.000000000E+00  0.000000000E+00 -2.036214266E+02  2.036214266E+02  0.000000000E+00  0.00000E+00  9.000E+00
      25     1     1     2     0     0 -2.050763457E+02  1.204998581E+02  5.592931230E+02  6.204919990E+02  1.250000000E+02  0.00000E+00  9.000E+00
      25     1     1     2     0     0  1.291878381E+02  2.022009755E+01  3.169721533E+02  3.649584851E+02  1.250000000E+02  0.00000E+00  9.000E+00
      21     1     1     2   502   511  7.588850758E+01 -1.407199556E+02 -1.061492457E+02  1.919083997E+02  5.878843310E-06  0.00000E+00  9.000E+00
#rwgt            2          11   3.5464434233149380E-003           8       77546           0
</event>
<event>
      5   9999  3.79277E-02  5.54305E+01 -1.00000E+00  1.36568E-01
      21    -1     0     0   502   501  0.000000000E+00  0.000000000E+00  2.216613235E+02  2.216613235E+02  0.000000000E+00  0.00000E+00  9.000E+00
      21    -1     0     0   512   502  0.000000000E+00  0.000000000E+00 -5.549491214E+02  5.549491214E+02  0.000000000E+00  0.00000E+00  9.000E+00
      25     1     1     2     0     0  2.193859470E+02  1.610527543E+02 -1.742132885E+02  3.464728753E+02  1.250000000E+02  0.00000E+00  9.000E+00
      25     1     1     2     0     0 -2.745666426E+02 -1.557965270E+02 -1.123485629E+02  3.576403202E+02  1.250000000E+02  0.00000E+00  9.000E+00
      21     1     1     2   512   501  5.518069552E+01 -5.256227344E+00 -4.672594662E+01  7.249724941E+01  9.536743164E-07  0.00000E+00  9.000E+00
#rwgt            1           1   3.4385835375705574E-002           8       77716           0
</event>
<event>
      5   9999  3.79277E-02  9.66724E+01 -1.00000E+00  1.24493E-01
      21    -1     0     0   502   501  0.000000000E+00  0.000000000E+00  2.118878078E+02  2.118878078E+02  0.000000000E+00  0.00000E+00  9.000E+00
      21    -1     0     0   511   502  0.000000000E+00  0.000000000E+00 -4.546627957E+02  4.546627957E+02  0.000000000E+00  0.00000E+00  9.000E+00
      25     1     1     2     0     0  6.343670257E+01  1.691510894E+02 -2.006187221E+02  2.975049209E+02  1.250000000E+02  0.00000E+00  9.000E+00
      25     1     1     2     0     0  3.251323541E+01 -1.809478472E+02  5.809060277E+01  2.297797903E+02  1.250000000E+02  0.00000E+00  9.000E+00
      21     1     1     2   511   501 -9.594993798E+01  1.179675783E+01 -1.002468687E+02  1.392658923E+02  0.000000000E+00  0.00000E+00  9.000E+00
#rwgt            1           1   8.7173126077621978E-003           8       78021           0
</event>
<event>
      5   9999  4.02131E-02  7.50838E+01 -1.00000E+00  1.29697E-01
      21    -1     0     0   502   512  0.000000000E+00  0.000000000E+00  1.623077891E+03  1.623077891E+03  0.000000000E+00  0.00000E+00  9.000E+00
      21    -1     0     0   501   502  0.000000000E+00  0.000000000E+00 -4.577688095E+01  4.577688095E+01  0.000000000E+00  0.00000E+00  9.000E+00
      25     1     1     2     0     0 -2.275289686E+02  3.848761065E+01  6.564128744E+02  7.069325211E+02  1.250000000E+02  0.00000E+00  9.000E+00
      25     1     1     2     0     0  1.552887938E+02 -1.801971628E+01  6.057716900E+02  6.379840595E+02  1.250000000E+02  0.00000E+00  9.000E+00
      21     1     1     2   501   512  7.224017475E+01 -2.046789437E+01  3.151164460E+02  3.239381917E+02  3.814697266E-06  0.00000E+00  9.000E+00
#rwgt            1           1  0.29591643184608696                8       78121           0
</event>
<event>
      5   9999  3.79277E-02  1.91294E+01 -1.00000E+00  1.67980E-01
      21    -1     0     0   502   501  0.000000000E+00  0.000000000E+00  3.341711148E+02  3.341711148E+02  0.000000000E+00  0.00000E+00  9.000E+00
      21    -1     0     0   511   502  0.000000000E+00  0.000000000E+00 -1.928368682E+02  1.928368682E+02  0.000000000E+00  0.00000E+00  9.000E+00
      25     1     1     2     0     0  2.023683716E+01  6.651674483E+01 -8.078499712E+01  1.642717951E+02  1.250000000E+02  0.00000E+00  9.000E+00
      25     1     1     2     0     0 -7.521591410E+00 -5.222489518E+01  2.749195001E+02  3.065774707E+02  1.250000000E+02  0.00000E+00  9.000E+00
      21     1     1     2   511   501 -1.271524575E+01 -1.429184965E+01 -5.280025636E+01  5.615871715E+01  1.168007728E-06  0.00000E+00  9.000E+00
#rwgt            1           1   4.5511852383862759E-002           8       78360           0
</event>
<event>
      5   9999  3.79277E-02  4.64168E+01 -1.00000E+00  1.40944E-01
      21    -1     0     0   502   501  0.000000000E+00  0.000000000E+00  6.172443714E+02  6.172443714E+02  0.000000000E+00  0.00000E+00  9.000E+00
      21    -1     0     0   512   502  0.000000000E+00  0.000000000E+00 -6.416500498E+01  6.416500498E+01  0.000000000E+00  0.00000E+00  9.000E+00
      25     1     1     2     0     0  6.591430820E+00 -6.035153692E+01  1.325581043E+02  1.920479263E+02  1.250000000E+02  0.00000E+00  9.000E+00
      25     1     1     2     0     0 -2.025207599E+01  1.047126122E+02  4.100932832E+02  4.417877076E+02  1.250000000E+02  0.00000E+00  9.000E+00
      21     1     1     2   512   501  1.366064517E+01 -4.436107528E+01  1.042797894E+01  4.757374246E+01  1.238859277E-06  0.00000E+00  9.000E+00
#rwgt            1           1   6.8479482666095354E-002           8       78504           0
</event>
<event>
      5   9999  3.79277E-02  7.59094E+01 -1.00000E+00  1.29463E-01
      21    -1     0     0   502   501  0.000000000E+00  0.000000000E+00  2.675219027E+02  2.675219027E+02  0.000000000E+00  0.00000E+00  9.000E+00
      21    -1     0     0   511   502  0.000000000E+00  0.000000000E+00 -1.558395920E+02  1.558395920E+02  0.000000000E+00  0.00000E+00  9.000E+00
      25     1     1     2     0     0  9.146261180E+01 -3.596450396E+01 -1.793174070E+01  1.600168811E+02  1.250000000E+02  0.00000E+00  9.000E+00
      25     1     1     2     0     0 -3.586820238E+01 -1.572209195E+01  1.338955579E+02  1.873145284E+02  1.250000000E+02  0.00000E+00  9.000E+00
      21     1     1     2   511   501 -5.559440943E+01  5.168659591E+01 -4.281506463E+00  7.603008519E+01  1.059555342E-06  0.00000E+00  9.000E+00
#rwgt            1           1   6.0185780252357456E-002           8       78656           0
</event>
<event>
      5   9999  3.79277E-02  8.45778E+01 -1.00000E+00  1.27191E-01
      21    -1     0     0   502   501  0.000000000E+00  0.000000000E+00  1.041831437E+03  1.041831437E+03  0.000000000E+00  0.00000E+00  9.000E+00
      21    -1     0     0   512   502  0.000000000E+00  0.000000000E+00 -6.485343527E+01  6.485343527E+01  0.000000000E+00  0.00000E+00  9.000E+00
      25     1     1     2     0     0  3.431343869E+01 -3.716575536E+01  7.901968843E+02  8.016201229E+02  1.250000000E+02  0.00000E+00  9.000E+00
      25     1     1     2     0     0  3.542692253E+01  8.501643647E+01  1.051714508E+02  1.875337180E+02  1.250000000E+02  0.00000E+00  9.000E+00
      21     1     1     2   512   501 -6.974036122E+01 -4.785068111E+01  8.160966675E+01  1.175310315E+02  0.000000000E+00  0.00000E+00  9.000E+00
#rwgt            1           1   5.6562706344998465E-002           8       78765           0
</event>
<event>
      5   9999  3.79277E-02  1.43084E+02 -1.00000E+00  1.17212E-01
      21    -1     0     0   502   501  0.000000000E+00  0.000000000E+00  3.957484851E+02  3.957484851E+02  0.000000000E+00  0.00000E+00  9.000E+00
      21    -1     0     0   511   502  0.000000000E+00  0.000000000E+00 -2.397694958E+02  2.397694958E+02  0.000000000E+00  0.00000E+00  9.000E+00
      25     1     1     2     0     0 -2.231755563E+02  5.439949868E+01  1.181923647E+02  2.869861834E+02  1.250000000E+02  0.00000E+00  9.000E+00
      25     1     1     2     0     0  9.173444236E+01 -1.109338002E+02  6.778092451E+01  2.023382556E+02  1.250000000E+02  0.00000E+00  9.000E+00
      21     1     1     2   511   501  1.314411139E+02  5.653430157E+01 -2.999429992E+01  1.461935419E+02  2.939421655E-06  0.00000E+00  9.000E+00
#rwgt            1           1   3.7026624677450055E-002           8       78833           0
</event>
<event>
      5   9999  3.79277E-02  1.11757E+02 -1.00000E+00  1.21695E-01
      21    -1     0     0   502   501  0.000000000E+00  0.000000000E+00  8.971174500E+01  8.971174500E+01  0.000000000E+00  0.00000E+00  9.000E+00
      21    -1     0     0   501   512  0.000000000E+00  0.000000000E+00 -1.013093071E+03  1.013093071E+03  0.000000000E+00  0.00000E+00  9.000E+00
      25     1     1     2     0     0 -1.208856878E+02 -1.852628839E+01 -2.136598390E+02  2.761016111E+02  1.250000000E+02  0.00000E+00  9.000E+00
      25     1     1     2     0     0  7.454782733E+01  1.202245536E+02 -1.138667199E+02  2.204585035E+02  1.250000000E+02  0.00000E+00  9.000E+00
      21     1     1     2   502   512  4.633786042E+01 -1.016982653E+02 -5.958547669E+02  6.062447012E+02  0.000000000E+00  0.00000E+00  9.000E+00
#rwgt            1           1   3.7418636320240409E-002           8       78901           0
</event>
<event>
      5   9999  3.79277E-02  1.58712E+01 -1.00000E+00  1.75105E-01
      21    -1     0     0   511   501  0.000000000E+00  0.000000000E+00  5.379120941E+02  5.379120941E+02  0.000000000E+00  0.00000E+00  9.000E+00
      21    -1     0     0   501   502  0.000000000E+00  0.000000000E+00 -2.323444160E+02  2.323444160E+02  0.000000000E+00  0.00000E+00  9.000E+00
      25     1     1     2     0     0 -1.674287407E+02 -7.109631495E+01 -9.612837931E+01  2.407337419E+02  1.250000000E+02  0.00000E+00  9.000E+00
      25     1     1     2     0     0  1.790664893E+02  8.188781118E+01  1.499418626E+02  2.772687926E+02  1.250000000E+02  0.00000E+00  9.000E+00
      21     1     1     2   511   502 -1.163774865E+01 -1.079149623E+01  2.517541948E+02  2.522539756E+02  3.814697266E-06  0.00000E+00  9.000E+00
#rwgt            1           1  0.19365548357495430                8       78957           0
</event>
<event>
      5   9999  3.79277E-02  3.10203E+01 -1.00000E+00  1.52038E-01
      21    -1     0     0   502   501  0.000000000E+00  0.000000000E+00  1.428796738E+02  1.428796738E+02  0.000000000E+00  0.00000E+00  9.000E+00
      21    -1     0     0   501   512  0.000000000E+00  0.000000000E+00 -6.461290525E+02  6.461290525E+02  0.000000000E+00  0.00000E+00  9.000E+00
      25     1     1     2     0     0 -1.967956322E+02  1.104790155E+02 -7.832901715E+01  2.696193032E+02  1.250000000E+02  0.00000E+00  9.000E+00
      25     1     1     2     0     0  2.161346799E+02 -8.622496046E+01 -3.515314248E+02  4.397138686E+02  1.250000000E+02  0.00000E+00  9.000E+00
      21     1     1     2   502   512 -1.933904765E+01 -2.425405501E+01 -7.338893674E+01  7.967555449E+01  0.000000000E+00  0.00000E+00  9.000E+00
#rwgt            1           1   4.3907180763893328E-002           8       79213           0
</event>
<event>
      5   9999  3.79277E-02  2.65515E+01 -1.00000E+00  1.56817E-01
      21    -1     0     0   502   511  0.000000000E+00  0.000000000E+00  5.679570358E+02  5.679570358E+02  0.000000000E+00  0.00000E+00  9.000E+00
      21    -1     0     0   501   502  0.000000000E+00  0.000000000E+00 -6.852280960E+01  6.852280960E+01  0.000000000E+00  0.00000E+00  9.000E+00
      25     1     1     2     0     0  6.446777867E+01 -3.409435971E+01  2.605303151E+02  2.980261145E+02  1.250000000E+02  0.00000E+00  9.000E+00
      25     1     1     2     0     0 -4.903301054E+01  5.569874639E+01  5.946238822E+01  1.570584671E+02  1.250000000E+02  0.00000E+00  9.000E+00
      21     1     1     2   501   511 -1.543476813E+01 -2.160438669E+01  1.794415229E+02  1.813952638E+02  1.907348633E-06  0.00000E+00  9.000E+00
#rwgt            1           1   4.1824154286897681E-002           8       79437           0
</event>
<event>
      5   9999  3.79277E-02  1.60690E+02 -1.00000E+00  1.15221E-01
      21    -1     0     0   502   501  0.000000000E+00  0.000000000E+00  5.706365316E+02  5.706365316E+02  0.000000000E+00  0.00000E+00  9.000E+00
      21    -1     0     0   512   502  0.000000000E+00  0.000000000E+00 -1.897169184E+02  1.897169184E+02  0.000000000E+00  0.00000E+00  9.000E+00
      25     1     1     2     0     0 -1.866873450E+02  6.778881167E+01  3.319183985E+02  4.065000751E+02  1.250000000E+02  0.00000E+00  9.000E+00
      25     1     1     2     0     0  3.611162286E+01 -1.238968697E+02  6.787613527E+01  1.920589841E+02  1.250000000E+02  0.00000E+00  9.000E+00
      21     1     1     2   512   501  1.505757222E+02  5.610805804E+01 -1.887492053E+01  1.617943908E+02  8.259061849E-07  0.00000E+00  9.000E+00
#rwgt            1           1   5.6791983705904957E-002           8       79597           0
</event>
<event>
      5   9999  3.79277E-02  2.69629E+01 -1.00000E+00  1.56331E-01
      -4    -1     0     0     0   501  0.000000000E+00  0.000000000E+00  4.973933930E+02  4.973933930E+02  0.000000000E+00  0.00000E+00  9.000E+00
      21    -1     0     0   501   502  0.000000000E+00  0.000000000E+00 -2.936679246E+02  2.936679246E+02  0.000000000E+00  0.00000E+00  9.000E+00
      25     1     1     2     0     0 -1.163443799E+02 -3.429160847E+01 -1.270112365E+02  2.155661925E+02  1.250000000E+02  0.00000E+00  9.000E+00
      25     1     1     2     0     0  1.325933156E+02  5.580830251E+01 -4.741027250E+01  1.963881053E+02  1.250000000E+02  0.00000E+00  9.000E+00
      -4     1     1     2     0   502 -1.624893571E+01 -2.151669405E+01  3.781469773E+02  3.791070199E+02  0.000000000E+00  0.00000E+00  9.000E+00
#rwgt            1           1   4.0310315925996987E-002           8       79675           0
</event>
<event>
      5   9999  3.79277E-02  6.51602E+01 -1.00000E+00  1.32816E-01
      21    -1     0     0   511   501  0.000000000E+00  0.000000000E+00  5.112604182E+02  5.112604182E+02  0.000000000E+00  0.00000E+00  9.000E+00
      21    -1     0     0   501   502  0.000000000E+00  0.000000000E+00 -3.427125275E+02  3.427125275E+02  0.000000000E+00  0.00000E+00  9.000E+00
      25     1     1     2     0     0 -9.986253887E+01 -2.793736479E+02 -2.198614533E+01  3.226926594E+02  1.250000000E+02  0.00000E+00  9.000E+00
      25     1     1     2     0     0  1.616454954E+02  2.586680281E+02 -2.861855939E-01  3.296414671E+02  1.250000000E+02  0.00000E+00  9.000E+00
      21     1     1     2   511   502 -6.178295654E+01  2.070561978E+01  1.908202216E+02  2.016388192E+02  2.697398305E-06  0.00000E+00  9.000E+00
#rwgt            1           1   2.7596195577380755E-002           8       79918           0
</event>
<event>
      5   9999  3.79277E-02  1.33452E+02 -1.00000E+00  1.18442E-01
       1    -1     0     0   502     0  0.000000000E+00  0.000000000E+00  3.002985767E+03  3.002985767E+03  0.000000000E+00  0.00000E+00  9.000E+00
      21    -1     0     0   501   502  0.000000000E+00  0.000000000E+00 -8.698127757E+01  8.698127757E+01  0.000000000E+00  0.00000E+00  9.000E+00
      25     1     1     2     0     0  1.212436781E+02  6.193986038E+01  4.233403377E+02  4.619292341E+02  1.250000000E+02  0.00000E+00  9.000E+00
      25     1     1     2     0     0 -1.001751335E+02  6.983850219E+01  5.004320534E+01  1.817740250E+02  1.250000000E+02  0.00000E+00  9.000E+00
       1     1     1     2   501     0 -2.106854456E+01 -1.317783626E+02  2.442620946E+03  2.446263785E+03  4.315837288E-05  0.00000E+00  9.000E+00
#rwgt            1           1   4.4485048983968524E-002           8       80123           0
</event>
<event>
      5   9999  3.79277E-02  6.27225E+01 -1.00000E+00  1.33682E-01
      21    -1     0     0   502   501  0.000000000E+00  0.000000000E+00  1.843380058E+03  1.843380058E+03  0.000000000E+00  0.00000E+00  9.000E+00
      21    -1     0     0   501   511  0.000000000E+00  0.000000000E+00 -1.684646453E+02  1.684646453E+02  0.000000000E+00  0.00000E+00  9.000E+00
      25     1     1     2     0     0 -1.164045267E+02  6.498480718E+00  1.407478901E+03  1.417820194E+03  1.250000000E+02  0.00000E+00  9.000E+00
      25     1     1     2     0     0  5.416922638E+01 -1.430068235E+01  4.132135041E+02  4.353265608E+02  1.250000000E+02  0.00000E+00  9.000E+00
      21     1     1     2   502   511  6.223530033E+01  7.802201632E+00 -1.457769933E+02  1.586979481E+02  6.607249480E-06  0.00000E+00  9.000E+00
#rwgt            1           1  0.13217732512847830                8       80309           0
</event>
<event>
      5   9999  3.79277E-02  8.31885E+01 -1.00000E+00  1.27533E-01
      21    -1     0     0   502   512  0.000000000E+00  0.000000000E+00  1.854908240E+02  1.854908240E+02  0.000000000E+00  0.00000E+00  9.000E+00
      21    -1     0     0   501   502  0.000000000E+00  0.000000000E+00 -1.381028840E+03  1.381028840E+03  0.000000000E+00  0.00000E+00  9.000E+00
      25     1     1     2     0     0  2.026408794E+02 -1.009852219E+02 -2.780122828E+02  3.797066900E+02  1.250000000E+02  0.00000E+00  9.000E+00
      25     1     1     2     0     0 -2.325628978E+02  1.786061041E+02 -1.011951505E+03  1.060969599E+03  1.250000000E+02  0.00000E+00  9.000E+00
      21     1     1     2   501   512  2.992201842E+01 -7.762088219E+01  9.442577193E+01  1.258433746E+02  4.264961200E-06  0.00000E+00  9.000E+00
#rwgt            2          11   1.9814236103637460E-003           8       80400           0
</event>
<event>
      5   9999  3.79277E-02  4.53968E+01 -1.00000E+00  1.41512E-01
      21    -1     0     0   502   501  0.000000000E+00  0.000000000E+00  4.928248021E+01  4.928248021E+01  0.000000000E+00  0.00000E+00  9.000E+00
      21    -1     0     0   501   511  0.000000000E+00  0.000000000E+00 -1.595208654E+03  1.595208654E+03  0.000000000E+00  0.00000E+00  9.000E+00
      25     1     1     2     0     0  1.819997446E+00  5.149250591E+01 -6.379510599E+01  1.494978465E+02  1.250000000E+02  0.00000E+00  9.000E+00
      25     1     1     2     0     0  9.499862338E+00 -7.529709707E+00 -1.338024874E+03  1.343905692E+03  1.250000000E+02  0.00000E+00  9.000E+00
      21     1     1     2   502   511 -1.131985978E+01 -4.396279620E+01 -1.441061937E+02  1.510875962E+02  1.907348633E-06  0.00000E+00  9.000E+00
#rwgt            1           1   4.4809467379839825E-002           8       80780           0
</event>
<event>
      5   9999  3.79277E-02  1.06480E+02 -1.00000E+00  1.22614E-01
      21    -1     0     0   502   512  0.000000000E+00  0.000000000E+00  1.434860569E+02  1.434860569E+02  0.000000000E+00  0.00000E+00  9.000E+00
      21    -1     0     0   501   502  0.000000000E+00  0.000000000E+00 -6.771890906E+02  6.771890906E+02  0.000000000E+00  0.00000E+00  9.000E+00
      25     1     1     2     0     0 -4.627727550E+01  9.310515255E+01 -5.371183394E+01  1.712311793E+02  1.250000000E+02  0.00000E+00  9.000E+00
      25     1     1     2     0     0  4.061036989E+01 -1.994343285E+02 -4.873269097E+02  5.427114984E+02  1.250000000E+02  0.00000E+00  9.000E+00
      21     1     1     2   501   512  5.666905610E+00  1.063291760E+02  7.335709954E+00  1.067324699E+02  1.747951305E-06  0.00000E+00  9.000E+00
#rwgt            1           1   4.0694450491394828E-002           8       80909           0
</event>
<event>
      5   9999  3.79277E-02  2.48166E+01 -1.00000E+00  1.58991E-01
      21    -1     0     0   502   501  0.000000000E+00  0.000000000E+00  1.215060057E+02  1.215060057E+02  0.000000000E+00  0.00000E+00  9.000E+00
      21    -1     0     0   501   511  0.000000000E+00  0.000000000E+00 -3.592118545E+02  3.592118545E+02  0.000000000E+00  0.00000E+00  9.000E+00
      25     1     1     2     0     0 -1.296224973E+01  1.435818555E+02 -1.636942745E+02  2.514052200E+02  1.250000000E+02  0.00000E+00  9.000E+00
      25     1     1     2     0     0 -1.178023729E+01 -1.416654177E+02 -5.242459433E+01  1.964209832E+02  1.250000000E+02  0.00000E+00  9.000E+00
      21     1     1     2   502   511  2.474248702E+01 -1.916437786E+00 -2.158697995E+01  3.289165701E+01  2.384185791E-07  0.00000E+00  9.000E+00
#rwgt            1           1   2.4565571047575625E-002           8       81111           0
</event>
<event>
      5   9999  3.79277E-02  8.33595E+01 -1.00000E+00  1.27491E-01
      21    -1     0     0   502   512  0.000000000E+00  0.000000000E+00  1.329455123E+02  1.329455123E+02  0.000000000E+00  0.00000E+00  9.000E+00
      21    -1     0     0   501   502  0.000000000E+00  0.000000000E+00 -1.414245668E+03  1.414245668E+03  0.000000000E+00  0.00000E+00  9.000E+00
      25     1     1     2     0     0 -2.424258562E+02 -1.229330150E+02 -7.413910045E+02  7.994801082E+02  1.250000000E+02  0.00000E+00  9.000E+00
      25     1     1     2     0     0  3.257549019E+02  1.251863463E+02 -5.505078617E+02  6.636804828E+02  1.250000000E+02  0.00000E+00  9.000E+00
      21     1     1     2   501   512 -8.332904579E+01 -2.253331295E+00  1.059871002E+01  8.403058983E+01  2.165544286E-06  0.00000E+00  9.000E+00
#rwgt            2          11   1.7210324935564159E-003           8       81268           0
</event>
<event>
      5   9999  3.79277E-02  7.87749E+01 -1.00000E+00  1.28675E-01
      21    -1     0     0   502   501  0.000000000E+00  0.000000000E+00  1.082363969E+03  1.082363969E+03  0.000000000E+00  0.00000E+00  9.000E+00
      21    -1     0     0   511   502  0.000000000E+00  0.000000000E+00 -3.003232281E+02  3.003232281E+02  0.000000000E+00  0.00000E+00  9.000E+00
      25     1     1     2     0     0  8.800939285E+01 -1.304193726E+01  9.074549114E+02  9.203342662E+02  1.250000000E+02  0.00000E+00  9.000E+00
      25     1     1     2     0     0 -1.156701474E+02  8.680082600E+01  1.055271945E+02  2.183459530E+02  1.250000000E+02  0.00000E+00  9.000E+00
      21     1     1     2   511   501  2.766075453E+01 -7.375888874E+01 -2.309413652E+02  2.440069777E+02  4.672030912E-06  0.00000E+00  9.000E+00
#rwgt            1           1   2.7808030528795928E-002           8       81303           0
</event>
<event>
      5   9999  3.79277E-02  3.78490E+01 -1.00000E+00  1.46345E-01
      21    -1     0     0   502   512  0.000000000E+00  0.000000000E+00  1.232518966E+02  1.232518966E+02  0.000000000E+00  0.00000E+00  9.000E+00
      21    -1     0     0   501   502  0.000000000E+00  0.000000000E+00 -9.627155461E+02  9.627155461E+02  0.000000000E+00  0.00000E+00  9.000E+00
      25     1     1     2     0     0  1.229861203E+02 -1.783636315E+02 -2.307985330E+02  3.403412018E+02  1.250000000E+02  0.00000E+00  9.000E+00
      25     1     1     2     0     0 -1.489614947E+02  1.508350210E+02 -6.467146060E+02  6.919577387E+02  1.250000000E+02  0.00000E+00  9.000E+00
      21     1     1     2   501   512  2.597537441E+01  2.752861045E+01  3.804948959E+01  5.366850219E+01  1.348699152E-06  0.00000E+00  9.000E+00
#rwgt            1           1   4.3389724044335852E-002           8       81454           0
</event>
<event>
      5   9999  3.79277E-02  3.22859E+01 -1.00000E+00  1.50857E-01
      21    -1     0     0   502   501  0.000000000E+00  0.000000000E+00  1.843130682E+01  1.843130682E+01  0.000000000E+00  0.00000E+00  9.000E+00
      21    -1     0     0   511   502  0.000000000E+00  0.000000000E+00 -2.430476551E+03  2.430476551E+03  0.000000000E+00  0.00000E+00  9.000E+00
      25     1     1     2     0     0 -8.830029946E+01 -2.682632184E+01 -4.233505994E+02  4.509626641E+02  1.250000000E+02  0.00000E+00  9.000E+00
      25     1     1     2     0     0  6.979175455E+01  5.328024284E+01 -1.803467065E+03  1.809924896E+03  1.250000000E+02  0.00000E+00  9.000E+00
      21     1     1     2   511   501  1.850854491E+01 -2.645392100E+01 -1.852275795E+02  1.880202977E+02  2.697398305E-06  0.00000E+00  9.000E+00
#rwgt            1           1   6.5865707818631172E-002           8       81632           0
</event>
<event>
      5   9999  3.79277E-02  4.18699E+01 -1.00000E+00  1.43620E-01
      21    -1     0     0   502   501  0.000000000E+00  0.000000000E+00  1.369511728E+03  1.369511728E+03  0.000000000E+00  0.00000E+00  9.000E+00
      21    -1     0     0   512   502  0.000000000E+00  0.000000000E+00 -5.267741506E+01  5.267741506E+01  0.000000000E+00  0.00000E+00  9.000E+00
      25     1     1     2     0     0  2.037041721E+02 -7.865590577E+01  8.178050286E+02  8.556355568E+02  1.250000000E+02  0.00000E+00  9.000E+00
      25     1     1     2     0     0 -1.627830339E+02  6.979326669E+01  4.633090249E+02  5.115170268E+02  1.250000000E+02  0.00000E+00  9.000E+00
      21     1     1     2   512   501 -4.092113829E+01  8.862639081E+00  3.572025922E+01  5.503655920E+01  4.768371582E-07  0.00000E+00  9.000E+00
#rwgt            1           1   2.3114797761181863E-002           8       81776           0
</event>
<event>
      5   9999  3.79277E-02  5.93576E+01 -1.00000E+00  1.34954E-01
      21    -1     0     0   502   501  0.000000000E+00  0.000000000E+00  1.114263251E+03  1.114263251E+03  0.000000000E+00  0.00000E+00  9.000E+00
      21    -1     0     0   501   511  0.000000000E+00  0.000000000E+00 -1.486570279E+02  1.486570279E+02  0.000000000E+00  0.00000E+00  9.000E+00
      25     1     1     2     0     0  2.335202330E+01  4.527968622E+01  9.123311454E+02  9.222628073E+02  1.250000000E+02  0.00000E+00  9.000E+00
      25     1     1     2     0     0 -1.905861639E+00 -1.006275620E+02  1.548509490E+02  2.230097642E+02  1.250000000E+02  0.00000E+00  9.000E+00
      21     1     1     2   502   511 -2.144616166E+01  5.534787579E+01 -1.015758718E+02  1.176477069E+02  2.697398305E-06  0.00000E+00  9.000E+00
#rwgt            2          11   2.6848517675703396E-003           8       82387           0
</event>
<event>
      5   9999  3.79277E-02  1.02958E+02 -1.00000E+00  1.23261E-01
      21    -1     0     0   502   512  0.000000000E+00  0.000000000E+00  2.191762000E+02  2.191762000E+02  0.000000000E+00  0.00000E+00  9.000E+00
      21    -1     0     0   501   502  0.000000000E+00  0.000000000E+00 -2.974901500E+02  2.974901500E+02  0.000000000E+00  0.00000E+00  9.000E+00
      25     1     1     2     0     0  1.523363772E+01 -1.687984363E+02  3.122083115E+01  2.128960218E+02  1.250000000E+02  0.00000E+00  9.000E+00
      25     1     1     2     0     0 -9.489527147E+00  6.600088855E+01 -1.371394029E+02  1.971760235E+02  1.250000000E+02  0.00000E+00  9.000E+00
      21     1     1     2   501   512 -5.744110572E+00  1.027975478E+02  2.760462178E+01  1.065943046E+02  1.469710828E-06  0.00000E+00  9.000E+00
#rwgt            1           1   3.8187342021651742E-002           8       82407           0
</event>
<event>
      5   9999  3.79277E-02  9.67169E+01 -1.00000E+00  1.24484E-01
      21    -1     0     0   511   501  0.000000000E+00  0.000000000E+00  1.515321898E+03  1.515321898E+03  0.000000000E+00  0.00000E+00  9.000E+00
      21    -1     0     0   501   502  0.000000000E+00  0.000000000E+00 -1.461651853E+02  1.461651853E+02  0.000000000E+00  0.00000E+00  9.000E+00
      25     1     1     2     0     0  2.713749561E+02 -1.437568398E+02  5.951183726E+02  6.812497877E+02  1.250000000E+02  0.00000E+00  9.000E+00
      25     1     1     2     0     0 -3.381134094E+02  2.137578646E+02  3.521380599E+02  5.473932000E+02  1.250000000E+02  0.00000E+00  9.000E+00
      21     1     1     2   511   502  6.673845327E+01 -7.000102477E+01  4.219002799E+02  4.328440953E+02  0.000000000E+00  0.00000E+00  9.000E+00
#rwgt            1           1  0.16603158283578098                8       82479           0
</event>
<event>
      5   9999  3.79277E-02  2.19676E+01 -1.00000E+00  1.63075E-01
      21    -1     0     0   502   501  0.000000000E+00  0.000000000E+00  9.534364926E+02  9.534364926E+02  0.000000000E+00  0.00000E+00  9.000E+00
      21    -1     0     0   501   512  0.000000000E+00  0.000000000E+00 -2.034219212E+02  2.034219212E+02  0.000000000E+00  0.00000E+00  9.000E+00
      25     1     1     2     0     0 -1.321674398E+02  3.561470682E+02  5.673842981E+02  6.941605780E+02  1.250000000E+02  0.00000E+00  9.000E+00
      25     1     1     2     0     0  1.497945191E+02 -3.430374358E+02  1.919407742E+02  4.388386276E+02  1.250000000E+02  0.00000E+00  9.000E+00
      21     1     1     2   502   512 -1.762707929E+01 -1.310963240E+01 -9.310500908E+00  2.385920814E+01  4.768371582E-07  0.00000E+00  9.000E+00
#rwgt            1           1   3.6639133196078325E-002           8       82594           0
</event>
<event>
      5   9999  3.79277E-02  6.25765E+01 -1.00000E+00  1.33735E-01
      21    -1     0     0   502   511  0.000000000E+00  0.000000000E+00  8.344510322E+02  8.344510322E+02  0.000000000E+00  0.00000E+00  9.000E+00
      21    -1     0     0   501   502  0.000000000E+00  0.000000000E+00 -7.478633952E+01  7.478633952E+01  0.000000000E+00  0.00000E+00  9.000E+00
      25     1     1     2     0     0 -6.403256103E+01  1.590762031E+02  4.046042165E+02  4.568752338E+02  1.250000000E+02  0.00000E+00  9.000E+00
      25     1     1     2     0     0  5.389541608E+01 -9.732624021E+01  1.119636139E+02  2.013404176E+02  1.250000000E+02  0.00000E+00  9.000E+00
      21     1     1     2   501   511  1.013714494E+01 -6.174996292E+01  2.430968623E+02  2.510217204E+02  2.697398305E-06  0.00000E+00  9.000E+00
#rwgt            1           1   3.6015910250125183E-002           8       82873           0
</event>
<event>
      5   9999  3.79277E-02  2.97375E+01 -1.00000E+00  1.53305E-01
      21    -1     0     0   502   512  0.000000000E+00  0.000000000E+00  1.154935850E+03  1.154935850E+03  0.000000000E+00  0.00000E+00  9.000E+00
      21    -1     0     0   501   502  0.000000000E+00  0.000000000E+00 -8.489533483E+01  8.489533483E+01  0.000000000E+00  0.00000E+00  9.000E+00
      25     1     1     2     0     0 -2.270931758E+01 -2.525753183E+02  4.981521945E+02  5.727919460E+02  1.250000000E+02  0.00000E+00  9.000E+00
      25     1     1     2     0     0 -5.273412040E+00  2.626392988E+02  4.116887899E+02  5.041030350E+02  1.250000000E+02  0.00000E+00  9.000E+00
      21     1     1     2   501   512  2.798272962E+01 -1.006398050E+01  1.601995312E+02  1.629362042E+02  1.907348633E-06  0.00000E+00  9.000E+00
#rwgt            1           1   2.6701932800088798E-002           8       83006           0
</event>
<event>
      5   9999  3.79277E-02  3.86092E+01 -1.00000E+00  1.45800E-01
      21    -1     0     0   502   501  0.000000000E+00  0.000000000E+00  9.324634705E+01  9.324634705E+01  0.000000000E+00  0.00000E+00  9.000E+00
      21    -1     0     0   511   502  0.000000000E+00  0.000000000E+00 -1.073479923E+03  1.073479923E+03  0.000000000E+00  0.00000E+00  9.000E+00
      25     1     1     2     0     0  3.697462151E+01 -1.863775251E+01 -4.106841132E+02  4.312782505E+02  1.250000000E+02  0.00000E+00  9.000E+00
      25     1     1     2     0     0 -5.884987164E+01  5.045190302E+01  1.660953307E+01  1.480188451E+02  1.250000000E+02  0.00000E+00  9.000E+00
      21     1     1     2   511   501  2.187525013E+01 -3.181415051E+01 -5.861589956E+02  5.874291743E+02  7.629394531E-06  0.00000E+00  9.000E+00
#rwgt            1           1   3.4446513575344791E-002           8       83129           0
</event>
<event>
      5   9999  3.79277E-02  1.67728E+01 -1.00000E+00  1.72932E-01
      21    -1     0     0   502   501  0.000000000E+00  0.000000000E+00  6.212368051E+02  6.212368051E+02  0.000000000E+00  0.00000E+00  9.000E+00
      21    -1     0     0   501   512  0.000000000E+00  0.000000000E+00 -1.422822579E+02  1.422822579E+02  0.000000000E+00  0.00000E+00  9.000E+00
      25     1     1     2     0     0  1.787296854E+01 -1.429957977E+02  1.469277950E+02  2.407904029E+02  1.250000000E+02  0.00000E+00  9.000E+00
      25     1     1     2     0     0 -1.640383628E+00  1.472183633E+02  4.045519509E+02  4.482892128E+02  1.250000000E+02  0.00000E+00  9.000E+00
      21     1     1     2   502   512 -1.623258491E+01 -4.222565598E+00 -7.252519870E+01  7.443944734E+01  1.348699152E-06  0.00000E+00  9.000E+00
#rwgt            1           1   3.9368983585307028E-002           8       83400           0
</event>
<event>
      5   9999  3.79277E-02  1.20812E+01 -1.00000E+00  1.86720E-01
      21    -1     0     0   502   501  0.000000000E+00  0.000000000E+00  4.737032830E+02  4.737032830E+02  0.000000000E+00  0.00000E+00  9.000E+00
      21    -1     0     0   511   502  0.000000000E+00  0.000000000E+00 -1.092638721E+02  1.092638721E+02  0.000000000E+00  0.00000E+00  9.000E+00
      25     1     1     2     0     0  8.740465224E+01 -4.157303913E+01 -2.023048091E+01  1.593805608E+02  1.250000000E+02  0.00000E+00  9.000E+00
      25     1     1     2     0     0 -7.654420689E+01  3.628085301E+01  3.826139248E+02  4.113316562E+02  1.250000000E+02  0.00000E+00  9.000E+00
      21     1     1     2   511   501 -1.086044535E+01  5.292186122E+00  2.055966993E+00  1.225493808E+01  7.884953353E-08  0.00000E+00  9.000E+00
#rwgt            1           1   2.9915849686729230E-002           8       83577           0
</event>
<event>
      5   9999  3.79277E-02  1.58510E+02 -1.00000E+00  1.15452E-01
      21    -1     0     0   502   501  0.000000000E+00  0.000000000E+00  6.871749054E+01  6.871749054E+01  0.000000000E+00  0.00000E+00  9.000E+00
      21    -1     0     0   501   512  0.000000000E+00  0.000000000E+00 -1.894097727E+03  1.894097727E+03  0.000000000E+00  0.00000E+00  9.000E+00
      25     1     1     2     0     0 -5.285640666E+01  9.814631034E+01 -6.821811503E+02  7.024404742E+02  1.250000000E+02  0.00000E+00  9.000E+00
      25     1     1     2     0     0 -8.944495450E+01 -1.679725736E+02 -1.972698795E+02  3.012566858E+02  1.250000000E+02  0.00000E+00  9.000E+00
      21     1     1     2   502   512  1.423013612E+02  6.982626321E+01 -9.459292065E+02  9.591180575E+02  1.078959322E-05  0.00000E+00  9.000E+00
#rwgt            1           1   4.6504135401520791E-002           8       83964           0
</event>
<event>
      5   9999  3.79277E-02  8.12001E+01 -1.00000E+00  1.28037E-01
      21    -1     0     0   502   501  0.000000000E+00  0.000000000E+00  1.788024280E+02  1.788024280E+02  0.000000000E+00  0.00000E+00  9.000E+00
      21    -1     0     0   511   502  0.000000000E+00  0.000000000E+00 -9.015068550E+02  9.015068550E+02  0.000000000E+00  0.00000E+00  9.000E+00
      25     1     1     2     0     0 -2.319729550E+01  2.552634300E+02 -5.415997189E+01  2.902685580E+02  1.250000000E+02  0.00000E+00  9.000E+00
      25     1     1     2     0     0  1.030525962E+02 -2.405466389E+02 -3.187269461E+02  4.309227184E+02  1.250000000E+02  0.00000E+00  9.000E+00
      21     1     1     2   511   501 -7.985530070E+01 -1.471679106E+01 -3.498175091E+02  3.591180066E+02  3.814697266E-06  0.00000E+00  9.000E+00
#rwgt            1           1   4.1807197162941456E-002           8       84004           0
</event>
<event>
      5   9999  3.79277E-02  6.23186E+01 -1.00000E+00  1.33829E-01
      21    -1     0     0   502   501  0.000000000E+00  0.000000000E+00  5.197439368E+02  5.197439368E+02  0.000000000E+00  0.00000E+00  9.000E+00
      21    -1     0     0   512   502  0.000000000E+00  0.000000000E+00 -1.713672395E+02  1.713672395E+02  0.000000000E+00  0.00000E+00  9.000E+00
      25     1     1     2     0     0 -3.073213624E+00 -1.801685038E+02  2.504863650E+02  3.329242459E+02  1.250000000E+02  0.00000E+00  9.000E+00
      25     1     1     2     0     0 -5.159326549E+01  1.502488231E+02  1.691095397E+02  2.635519120E+02  1.250000000E+02  0.00000E+00  9.000E+00
      21     1     1     2   512   501  5.466647911E+01  2.991968070E+01 -7.121920732E+01  9.463501848E+01  1.651812370E-06  0.00000E+00  9.000E+00
#rwgt            1           1   4.1144170682211816E-002           8       84203           0
</event>
<event>
      5   9999 -3.79277E-02  1.07739E+01 -1.00000E+00  1.92088E-01
      21    -1     0     0   502   501  0.000000000E+00  0.000000000E+00  1.443071470E+02  1.443071470E+02  0.000000000E+00  0.00000E+00  9.000E+00
      21    -1     0     0   511   502  0.000000000E+00  0.000000000E+00 -6.328177083E+02  6.328177083E+02  0.000000000E+00  0.00000E+00  9.000E+00
      25     1     1     2     0     0 -9.553283754E+01  1.602545095E+02 -1.650603052E+02  2.787076160E+02  1.250000000E+02  0.00000E+00  9.000E+00
      25     1     1     2     0     0  1.055215646E+02 -1.642922260E+02 -6.643315319E+01  2.411744181E+02  1.250000000E+02  0.00000E+00  9.000E+00
      21     1     1     2   511   501 -9.988727037E+00  4.037716495E+00 -2.570171030E+02  2.572428212E+02  3.814697266E-06  0.00000E+00  9.000E+00
#rwgt            1           1 -0.14770532655333682                8       84485           0
</event>
<event>
      5   9999  3.79277E-02  6.65806E+01 -1.00000E+00  1.32332E-01
      -2    -1     0     0     0   501  0.000000000E+00  0.000000000E+00  6.472575501E+02  6.472575501E+02  0.000000000E+00  0.00000E+00  9.000E+00
      21    -1     0     0   501   502  0.000000000E+00  0.000000000E+00 -2.871010984E+02  2.871010984E+02  0.000000000E+00  0.00000E+00  9.000E+00
      25     1     1     2     0     0 -7.406814031E+01 -2.119958745E+02 -3.911290143E+01  2.599676120E+02  1.250000000E+02  0.00000E+00  9.000E+00
      25     1     1     2     0     0  7.157581151E+01  1.454619886E+02 -5.762689130E+01  2.126690987E+02  1.250000000E+02  0.00000E+00  9.000E+00
      -2     1     1     2     0   502  2.492328806E+00  6.653388587E+01  4.568962444E+02  4.617219378E+02  5.394796609E-06  0.00000E+00  9.000E+00
#rwgt            1           1   4.5810708507253980E-002           8       84705           0
</event>
<event>
      5   9999  3.79277E-02  5.00965E+01 -1.00000E+00  1.39028E-01
      21    -1     0     0   502   501  0.000000000E+00  0.000000000E+00  2.115606162E+02  2.115606162E+02  0.000000000E+00  0.00000E+00  9.000E+00
      21    -1     0     0   511   502  0.000000000E+00  0.000000000E+00 -6.262369283E+02  6.262369283E+02  0.000000000E+00  0.00000E+00  9.000E+00
      25     1     1     2     0     0 -9.404026542E+01  1.647304770E+02 -1.369195736E+01  2.275789342E+02  1.250000000E+02  0.00000E+00  9.000E+00
      25     1     1     2     0     0  1.012551820E+02 -1.151562645E+02  8.175254252E+00  1.980035654E+02  1.250000000E+02  0.00000E+00  9.000E+00
      21     1     1     2   511   501 -7.214916534E+00 -4.957421251E+01 -4.091596090E+02  4.122150449E+02  0.000000000E+00  0.00000E+00  9.000E+00
#rwgt            1           1   3.7213227053827701E-002           8       84834           0
</event>
<event>
      5   9999  3.79277E-02  8.07835E+00 -1.00000E+00  2.07119E-01
      21    -1     0     0   512   501  0.000000000E+00  0.000000000E+00  3.192538354E+01  3.192538354E+01  0.000000000E+00  0.00000E+00  9.000E+00
      21    -1     0     0   501   502  0.000000000E+00  0.000000000E+00 -1.292575854E+03  1.292575854E+03  0.000000000E+00  0.00000E+00  9.000E+00
      25     1     1     2     0     0 -8.205006583E+01 -8.783853018E+01 -7.816881214E+02  8.006929123E+02  1.250000000E+02  0.00000E+00  9.000E+00
      25     1     1     2     0     0  8.585333503E+01  9.496558583E+01 -4.827826706E+02  5.148721828E+02  1.250000000E+02  0.00000E+00  9.000E+00
      21     1     1     2   512   502 -3.803269192E+00 -7.127055649E+00  3.820321756E+00  8.936142182E+00  3.576278687E-07  0.00000E+00  9.000E+00
#rwgt            1           1   4.1057373333860329E-002           8       84988           0
</event>
<event>
      5   9999  3.79277E-02  7.69631E+01 -1.00000E+00  1.29168E-01
      21    -1     0     0   511   501  0.000000000E+00  0.000000000E+00  2.878599119E+02  2.878599119E+02  0.000000000E+00  0.00000E+00  9.000E+00
      21    -1     0     0   501   502  0.000000000E+00  0.000000000E+00 -2.644448679E+02  2.644448679E+02  0.000000000E+00  0.00000E+00  9.000E+00
      25     1     1     2     0     0  8.807269764E+01 -1.035136948E+02 -1.564432000E+02  2.420152059E+02  1.250000000E+02  0.00000E+00  9.000E+00
      25     1     1     2     0     0 -3.415539523E+01  4.859340560E+01  2.968299302E+01  1.415414786E+02  1.250000000E+02  0.00000E+00  9.000E+00
      21     1     1     2   511   502 -5.391730241E+01  5.492028916E+01  1.501752510E+02  1.687480953E+02  1.907348633E-06  0.00000E+00  9.000E+00
#rwgt            1           1   3.7344967737466692E-002           8       85352           0
</event>
<event>
      5   9999  3.79277E-02  5.33030E+01 -1.00000E+00  1.37509E-01
      21    -1     0     0   502   501  0.000000000E+00  0.000000000E+00  1.627169608E+03  1.627169608E+03  0.000000000E+00  0.00000E+00  9.000E+00
      21    -1     0     0   501   512  0.000000000E+00  0.000000000E+00 -9.813502137E+01  9.813502137E+01  0.000000000E+00  0.00000E+00  9.000E+00
      25     1     1     2     0     0 -1.784313910E+01  2.153171588E+01  2.153742589E+02  2.505854421E+02  1.250000000E+02  0.00000E+00  9.000E+00
      25     1     1     2     0     0  6.195758499E+01 -5.145038683E+01  1.380917972E+03  1.388900763E+03  1.250000000E+02  0.00000E+00  9.000E+00
      21     1     1     2   502   512 -4.411444589E+01  2.991867095E+01 -6.725764422E+01  8.581842409E+01  5.722045898E-06  0.00000E+00  9.000E+00
#rwgt            1           1   5.2058300273675417E-002           8       85450           0
</event>
<event>
      5   9999  3.79277E-02  5.58243E+01 -1.00000E+00  1.36399E-01
      -1    -1     0     0     0   501  0.000000000E+00  0.000000000E+00  1.100742221E+02  1.100742221E+02  0.000000000E+00  0.00000E+00  9.000E+00
      21    -1     0     0   501   502  0.000000000E+00  0.000000000E+00 -8.428630165E+02  8.428630165E+02  0.000000000E+00  0.00000E+00  9.000E+00
      25     1     1     2     0     0 -9.232446666E+01  4.407805508E+01 -5.613362839E+02  5.841148052E+02  1.250000000E+02  0.00000E+00  9.000E+00
      25     1     1     2     0     0  1.460013688E+02 -2.874374939E+01 -2.209207202E+02  2.942338652E+02  1.250000000E+02  0.00000E+00  9.000E+00
      -1     1     1     2     0   502 -5.367690211E+01 -1.533430569E+01  4.946820967E+01  7.458856828E+01  9.536743164E-07  0.00000E+00  9.000E+00
#rwgt            1           1   3.6227889056023019E-002           8       85669           0
</event>
<event>
      5   9999  3.79277E-02  2.18161E+01 -1.00000E+00  1.63314E-01
      21    -1     0     0   502   501  0.000000000E+00  0.000000000E+00  4.064250841E+02  4.064250841E+02  0.000000000E+00  0.00000E+00  9.000E+00
      21    -1     0     0   511   502  0.000000000E+00  0.000000000E+00 -1.428451213E+03  1.428451213E+03  0.000000000E+00  0.00000E+00  9.000E+00
      25     1     1     2     0     0  6.265938888E+01  1.430778350E+02  6.198119590E+01  2.094376626E+02  1.250000000E+02  0.00000E+00  9.000E+00
      25     1     1     2     0     0 -4.491013721E+01 -1.557627372E+02  2.319149285E+02  3.093355537E+02  1.250000000E+02  0.00000E+00  9.000E+00
      21     1     1     2   511   501 -1.774925167E+01  1.268490217E+01 -1.315922253E+03  1.316103081E+03  1.525878906E-05  0.00000E+00  9.000E+00
#rwgt            1           1   4.2610354178388835E-002           8       85856           0
</event>
<event>
      5   9999  3.79277E-02  2.22255E+01 -1.00000E+00  1.62675E-01
      21    -1     0     0   502   501  0.000000000E+00  0.000000000E+00  4.142420960E+01  4.142420960E+01  0.000000000E+00  0.00000E+00  9.000E+00
      21    -1     0     0   512   502  0.000000000E+00  0.000000000E+00 -1.412350367E+03  1.412350367E+03  0.000000000E+00  0.00000E+00  9.000E+00
      25     1     1     2     0     0 -9.226247169E+00 -3.799622776E+00 -7.084121139E+01  1.440244354E+02  1.250000000E+02  0.00000E+00  9.000E+00
      25     1     1     2     0     0  2.459585729E+01  1.985419213E+01 -9.168823844E+02  9.259035867E+02  1.250000000E+02  0.00000E+00  9.000E+00
      21     1     1     2   512   501 -1.536961012E+01 -1.605456935E+01 -3.832025620E+02  3.838465548E+02  0.000000000E+00  0.00000E+00  9.000E+00
#rwgt            1           1   5.4740097329616308E-002           8       85984           0
</event>
<event>
      5   9999  3.79277E-02  1.32695E+02 -1.00000E+00  1.18543E-01
      21    -1     0     0   502   501  0.000000000E+00  0.000000000E+00  1.220369552E+02  1.220369552E+02  0.000000000E+00  0.00000E+00  9.000E+00
      21    -1     0     0   501   511  0.000000000E+00  0.000000000E+00 -1.172010991E+03  1.172010991E+03  0.000000000E+00  0.00000E+00  9.000E+00
      25     1     1     2     0     0  2.016110725E+02 -1.135238532E+02 -4.409093086E+02  5.133816400E+02  1.250000000E+02  0.00000E+00  9.000E+00
      25     1     1     2     0     0 -2.993340098E+02  2.375662094E+01 -2.925640517E+02  4.374745145E+02  1.250000000E+02  0.00000E+00  9.000E+00
      21     1     1     2   502   511  9.772293727E+01  8.976723226E+01 -3.165006759E+02  3.431917923E+02  0.000000000E+00  0.00000E+00  9.000E+00
#rwgt            1           1   1.7538556446389540E-002           8       86212           0
</event>
<event>
      5   9999 -3.79277E-02  7.37672E+01 -1.00000E+00  1.30078E-01
      21    -1     0     0   512   501  0.000000000E+00  0.000000000E+00  6.128828676E+01  6.128828676E+01  0.000000000E+00  0.00000E+00  9.000E+00
      21    -1     0     0   501   502  0.000000000E+00  0.000000000E+00 -1.055802221E+03  1.055802221E+03  0.000000000E+00  0.00000E+00  9.000E+00
      25     1     1     2     0     0 -1.963284488E+02 -4.852807208E+01 -4.698854359E+02  5.266091116E+02  1.250000000E+02  0.00000E+00  9.000E+00
      25     1     1     2     0     0  1.246808881E+02  6.608454408E+01 -4.370671242E+02  4.759886153E+02  1.250000000E+02  0.00000E+00  9.000E+00
      21     1     1     2   512   502  7.164756063E+01 -1.755647200E+01 -8.756137468E+01  1.144927814E+02  1.651812370E-06  0.00000E+00  9.000E+00
#rwgt            1           1 -0.10976795719456657                8       86375           0
</event>
<event>
      5   9999  3.79277E-02  2.01626E+01 -1.00000E+00  1.66079E-01
      21    -1     0     0   511   501  0.000000000E+00  0.000000000E+00  1.114509184E+03  1.114509184E+03  0.000000000E+00  0.00000E+00  9.000E+00
      21    -1     0     0   501   502  0.000000000E+00  0.000000000E+00 -2.931762354E+02  2.931762354E+02  0.000000000E+00  0.00000E+00  9.000E+00
      25     1     1     2     0     0  2.917307311E+02 -4.652496227E+02  4.025109442E+02  6.922456869E+02  1.250000000E+02  0.00000E+00  9.000E+00
      25     1     1     2     0     0 -2.723238069E+02  4.707178904E+02  3.921905675E+02  6.820366774E+02  1.250000000E+02  0.00000E+00  9.000E+00
      21     1     1     2   511   502 -1.940692419E+01 -5.468267726E+00  2.663143738E+01  3.340305548E+01  0.000000000E+00  0.00000E+00  9.000E+00
#rwgt            1           1  0.10945329376516191                8       86443           0
</event>
<event>
      5   9999  3.79277E-02  6.39202E+01 -1.00000E+00  1.33251E-01
      21    -1     0     0   512   501  0.000000000E+00  0.000000000E+00  2.986118367E+03  2.986118367E+03  0.000000000E+00  0.00000E+00  9.000E+00
      21    -1     0     0   501   502  0.000000000E+00  0.000000000E+00 -2.207823630E+01  2.207823630E+01  0.000000000E+00  0.00000E+00  9.000E+00
      25     1     1     2     0     0 -4.203213140E+01 -1.339663932E+02  1.486143831E+03  1.497986042E+03  1.250000000E+02  0.00000E+00  9.000E+00
      25     1     1     2     0     0  8.566677964E+01  8.725655775E+01  4.903258671E+02  5.205736835E+02  1.250000000E+02  0.00000E+00  9.000E+00
      21     1     1     2   512   502 -4.363464824E+01  4.670983548E+01  9.875704319E+02  9.896368775E+02  1.078959322E-05  0.00000E+00  9.000E+00
#rwgt            1           1   8.8315183351626386E-002           8       86777           0
</event>
<event>
      5   9999  3.79277E-02  6.82910E+00 -1.00000E+00  2.17082E-01
      21    -1     0     0   502   501  0.000000000E+00  0.000000000E+00  1.818591492E+02  1.818591492E+02  0.000000000E+00  0.00000E+00  9.000E+00
      21    -1     0     0   511   502  0.000000000E+00  0.000000000E+00 -1.928218868E+02  1.928218868E+02  0.000000000E+00  0.00000E+00  9.000E+00
      25     1     1     2     0     0 -9.648261052E+01 -8.402944384E+01 -5.662090990E+01  1.876186798E+02  1.250000000E+02  0.00000E+00  9.000E+00
      25     1     1     2     0     0  9.065540869E+01  8.046849783E+01  4.638480384E+01  1.801947066E+02  1.250000000E+02  0.00000E+00  9.000E+00
      21     1     1     2   511   501  5.827201825E+00  3.560946009E+00 -7.266314558E-01  6.867649588E+00  4.942156062E-08  0.00000E+00  9.000E+00
#rwgt            1           1   3.9239059739197037E-002           8       86855           0
</event>
<event>
      5   9999  3.79277E-02  1.21853E+01 -1.00000E+00  1.86331E-01
      21    -1     0     0   502   512  0.000000000E+00  0.000000000E+00  2.234891363E+02  2.234891363E+02  0.000000000E+00  0.00000E+00  9.000E+00
      21    -1     0     0   501   502  0.000000000E+00  0.000000000E+00 -1.622661788E+02  1.622661788E+02  0.000000000E+00  0.00000E+00  9.000E+00
      25     1     1     2     0     0 -7.618855939E+01 -5.264291531E+01 -7.115843797E+01  1.710686892E+02  1.250000000E+02  0.00000E+00  9.000E+00
      25     1     1     2     0     0  7.002185759E+01  4.213324475E+01  9.906700306E+01  1.792136768E+02  1.250000000E+02  0.00000E+00  9.000E+00
      21     1     1     2   501   512  6.166701804E+00  1.050967055E+01  3.331439234E+01  3.547294917E+01  4.768371582E-07  0.00000E+00  9.000E+00
#rwgt            1           1   2.8803173528123210E-002           8       87142           0
</event>
<event>
      5   9999  3.79277E-02  4.89486E+01 -1.00000E+00  1.39604E-01
      21    -1     0     0   502   501  0.000000000E+00  0.000000000E+00  4.411264704E+02  4.411264704E+02  0.000000000E+00  0.00000E+00  9.000E+00
       2    -1     0     0   501     0  0.000000000E+00  0.000000000E+00 -4.411093291E+02  4.411093291E+02  0.000000000E+00  0.00000E+00  9.000E+00
      25     1     1     2     0     0 -1.192330373E+02 -1.202723807E+02  1.269189721E+02  2.457954194E+02  1.250000000E+02  0.00000E+00  9.000E+00
      25     1     1     2     0     0  1.303611550E+02  7.260552922E+01  2.155922299E+02  2.904661825E+02  1.250000000E+02  0.00000E+00  9.000E+00
       2     1     1     2   502     0 -1.112811776E+01  4.766685145E+01 -3.424940607E+02  3.459741975E+02  5.394796609E-06  0.00000E+00  9.000E+00
#rwgt            1           1   3.3976304215901997E-002           8       87322           0
</event>
<event>
      5   9999  3.79277E-02  1.75991E+01 -1.00000E+00  1.71086E-01
      21    -1     0     0   502   511  0.000000000E+00  0.000000000E+00  4.541423634E+02  4.541423634E+02  0.000000000E+00  0.00000E+00  9.000E+00
      21    -1     0     0   501   502  0.000000000E+00  0.000000000E+00 -1.819103395E+02  1.819103395E+02  0.000000000E+00  0.00000E+00  9.000E+00
      25     1     1     2     0     0  1.486329506E+02 -9.525724129E+00  1.093026827E+02  2.230573241E+02  1.250000000E+02  0.00000E+00  9.000E+00
      25     1     1     2     0     0 -1.661629094E+02  7.967323613E+00 -3.780629930E+01  2.114897325E+02  1.250000000E+02  0.00000E+00  9.000E+00
      21     1     1     2   501   511  1.752995884E+01  1.558400516E+00  2.007356406E+02  2.015056462E+02  0.000000000E+00  0.00000E+00  9.000E+00
#rwgt            1           1   3.5947703737002165E-002           8       87614           0
</event>
<event>
      5   9999  3.79277E-02  2.50734E+01 -1.00000E+00  1.58656E-01
      21    -1     0     0   502   501  0.000000000E+00  0.000000000E+00  6.998488292E+01  6.998488292E+01  0.000000000E+00  0.00000E+00  9.000E+00
      21    -1     0     0   501   512  0.000000000E+00  0.000000000E+00 -8.493255150E+02  8.493255150E+02  0.000000000E+00  0.00000E+00  9.000E+00
      25     1     1     2     0     0  1.381526395E+02 -1.440868038E+02 -2.901459465E+02  3.737068759E+02  1.250000000E+02  0.00000E+00  9.000E+00
      25     1     1     2     0     0 -1.151685264E+02  1.340665143E+02 -4.417643417E+02  4.919536089E+02  1.250000000E+02  0.00000E+00  9.000E+00
      21     1     1     2   502   512 -2.298411311E+01  1.002028945E+01 -4.743034388E+01  5.364991311E+01  6.743495762E-07  0.00000E+00  9.000E+00
#rwgt            1           1   9.8354153410178571E-002           8       87923           0
</event>
<event>
      5   9999  3.79277E-02  1.09401E+01 -1.00000E+00  1.91352E-01
      21    -1     0     0   511   501  0.000000000E+00  0.000000000E+00  1.625808824E+02  1.625808824E+02  0.000000000E+00  0.00000E+00  9.000E+00
      21    -1     0     0   501   502  0.000000000E+00  0.000000000E+00 -2.118283725E+02  2.118283725E+02  0.000000000E+00  0.00000E+00  9.000E+00
      25     1     1     2     0     0  7.138838273E+01 -7.656617379E+01 -8.537295682E+01  1.840440760E+02  1.250000000E+02  0.00000E+00  9.000E+00
      25     1     1     2     0     0 -6.286065280E+01  8.341920173E+01  1.136124638E+01  1.632920782E+02  1.250000000E+02  0.00000E+00  9.000E+00
      21     1     1     2   511   502 -8.527729931E+00 -6.853027940E+00  2.476422038E+01  2.707310068E+01  3.371747881E-07  0.00000E+00  9.000E+00
#rwgt            1           1   3.5737660610118627E-002           8       88331           0
</event>
<event>
      5   9999  3.79277E-02  2.32463E+01 -1.00000E+00  1.61154E-01
      21    -1     0     0   502   501  0.000000000E+00  0.000000000E+00  2.564545663E+02  2.564545663E+02  0.000000000E+00  0.00000E+00  9.000E+00
      21    -1     0     0   512   502  0.000000000E+00  0.000000000E+00 -1.702392440E+02  1.702392440E+02  0.000000000E+00  0.00000E+00  9.000E+00
      25     1     1     2     0     0  1.098704320E+02 -2.172202958E-01  1.146652229E+02  2.021006491E+02  1.250000000E+02  0.00000E+00  9.000E+00
      25     1     1     2     0     0 -1.302835908E+02 -1.090443956E+01  8.342016921E+00  1.810726652E+02  1.250000000E+02  0.00000E+00  9.000E+00
      21     1     1     2   512   501  2.041315887E+01  1.112165985E+01 -3.679191756E+01  4.352049598E+01  4.768371582E-07  0.00000E+00  9.000E+00
#rwgt            1           1   4.5010122702768274E-002           8       88545           0
</event>
<event>
      5   9999  3.79277E-02  2.49450E+01 -1.00000E+00  1.58823E-01
      21    -1     0     0   502   501  0.000000000E+00  0.000000000E+00  3.220747117E+02  3.220747117E+02  0.000000000E+00  0.00000E+00  9.000E+00
       1    -1     0     0   501     0  0.000000000E+00  0.000000000E+00 -2.416319510E+03  2.416319510E+03  0.000000000E+00  0.00000E+00  9.000E+00
      25     1     1     2     0     0  1.669953536E+02  8.962989058E+01  1.961735348E+02  3.000500311E+02  1.250000000E+02  0.00000E+00  9.000E+00
      25     1     1     2     0     0 -1.899400314E+02 -7.984234024E+01 -1.226039396E+02  2.703862808E+02  1.250000000E+02  0.00000E+00  9.000E+00
       1     1     1     2   502     0  2.294467784E+01 -9.787550341E+00 -2.167814393E+03  2.167957910E+03  3.051757812E-05  0.00000E+00  9.000E+00
#rwgt            1           1   1.0220214626260065E-002           8       88695           0
</event>
<event>
      5   9999  3.79277E-02  3.67086E+01 -1.00000E+00  1.47192E-01
      21    -1     0     0   502   501  0.000000000E+00  0.000000000E+00  8.304249052E+02  8.304249052E+02  0.000000000E+00  0.00000E+00  9.000E+00
      21    -1     0     0   501   511  0.000000000E+00  0.000000000E+00 -5.647186474E+01  5.647186474E+01  0.000000000E+00  0.00000E+00  9.000E+00
      25     1     1     2     0     0 -3.988729519E+01 -5.192204602E+01  3.903898985E+02  4.151098264E+02  1.250000000E+02  0.00000E+00  9.000E+00
      25     1     1     2     0     0  6.417265814E+01  2.439498862E+01  4.049322983E+02  4.293115556E+02  1.250000000E+02  0.00000E+00  9.000E+00
      21     1     1     2   502   511 -2.428536295E+01  2.752705740E+01 -2.136915629E+01  4.247538797E+01  1.039242493E-06  0.00000E+00  9.000E+00
#rwgt            1           1   5.5134839418973548E-002           8       88811           0
</event>
<event>
      5   9999 -3.79277E-02  1.87200E+01 -1.00000E+00  1.68775E-01
      21    -1     0     0   512   501  0.000000000E+00  0.000000000E+00  2.088594898E+02  2.088594898E+02  0.000000000E+00  0.00000E+00  9.000E+00
      21    -1     0     0   501   502  0.000000000E+00  0.000000000E+00 -1.782610638E+02  1.782610638E+02  0.000000000E+00  0.00000E+00  9.000E+00
      25     1     1     2     0     0  1.260983188E+02  1.507986014E+01  1.647789546E+01  1.789544893E+02  1.250000000E+02  0.00000E+00  9.000E+00
      25     1     1     2     0     0 -1.361000110E+02  7.442841813E-01  1.269254525E-01  1.847938934E+02  1.250000000E+02  0.00000E+00  9.000E+00
      21     1     1     2   512   502  1.000169215E+01 -1.582414432E+01  1.399360503E+01  2.337217087E+01  5.591411304E-07  0.00000E+00  9.000E+00
#rwgt            1           1  -4.0575487415285195E-002           8       88913           0
</event>
<event>
      5   9999  3.79277E-02  3.47328E+01 -1.00000E+00  1.48749E-01
      21    -1     0     0   502   511  0.000000000E+00  0.000000000E+00  9.674783544E+01  9.674783544E+01  0.000000000E+00  0.00000E+00  9.000E+00
      21    -1     0     0   501   502  0.000000000E+00  0.000000000E+00 -1.796392093E+03  1.796392093E+03  0.000000000E+00  0.00000E+00  9.000E+00
      25     1     1     2     0     0 -1.102322075E+02 -3.170650993E+02 -7.943572279E+02  8.713838547E+02  1.250000000E+02  0.00000E+00  9.000E+00
      25     1     1     2     0     0  7.703121454E+01  3.068639411E+02 -9.223315184E+02  9.830664862E+02  1.250000000E+02  0.00000E+00  9.000E+00
      21     1     1     2   501   511  3.320099300E+01  1.020115813E+01  1.704448897E+01  3.868958733E+01  2.384185791E-07  0.00000E+00  9.000E+00
#rwgt            1           1  0.10471021078447067                8       89168           0
</event>
<event>
      5   9999  3.79277E-02  2.17586E+01 -1.00000E+00  1.63405E-01
      21    -1     0     0   502   501  0.000000000E+00  0.000000000E+00  7.432916476E+01  7.432916476E+01  0.000000000E+00  0.00000E+00  9.000E+00
      21    -1     0     0   512   502  0.000000000E+00  0.000000000E+00 -6.950800020E+02  6.950800020E+02  0.000000000E+00  0.00000E+00  9.000E+00
      25     1     1     2     0     0  9.430803036E+01 -3.552108896E+01 -2.686278394E+02  3.129563363E+02  1.250000000E+02  0.00000E+00  9.000E+00
      25     1     1     2     0     0 -7.710923404E+01  4.884915343E+01 -6.396928157E+01  1.674787830E+02  1.250000000E+02  0.00000E+00  9.000E+00
      21     1     1     2   512   501 -1.719879633E+01 -1.332806447E+01 -2.881537163E+02  2.889740474E+02  3.814697266E-06  0.00000E+00  9.000E+00
#rwgt            1           1   4.2515478139852590E-002           8       89425           0
</event>
<event>
      5   9999  3.79277E-02  2.37864E+01 -1.00000E+00  1.60387E-01
      21    -1     0     0   502   501  0.000000000E+00  0.000000000E+00  1.755039192E+03  1.755039192E+03  0.000000000E+00  0.00000E+00  9.000E+00
      21    -1     0     0   511   502  0.000000000E+00  0.000000000E+00 -3.275128621E+01  3.275128621E+01  0.000000000E+00  0.00000E+00  9.000E+00
      25     1     1     2     0     0 -1.597119480E+02  7.643423338E+01  1.048641269E+03  1.070805122E+03  1.250000000E+02  0.00000E+00  9.000E+00
      25     1     1     2     0     0  1.404181733E+02 -6.252227753E+01  6.609868867E+02  6.900398270E+02  1.250000000E+02  0.00000E+00  9.000E+00
      21     1     1     2   511   501  1.929377469E+01 -1.391195586E+01  1.265974982E+01  2.694552881E+01  9.536743164E-07  0.00000E+00  9.000E+00
#rwgt            1           1   2.1464295812995127E-002           8       89679           0
</event>
<event>
      5   9999  3.79277E-02  2.12314E+02 -1.00000E+00  1.10711E-01
      21    -1     0     0   512   501  0.000000000E+00  0.000000000E+00  5.942400875E+02  5.942400875E+02  0.000000000E+00  0.00000E+00  9.000E+00
      21    -1     0     0   501   502  0.000000000E+00  0.000000000E+00 -3.259332626E+02  3.259332626E+02  0.000000000E+00  0.00000E+00  9.000E+00
      25     1     1     2     0     0  1.247427569E+02  9.775174803E+01 -4.775826535E+01  2.074174813E+02  1.250000000E+02  0.00000E+00  9.000E+00
      25     1     1     2     0     0 -1.898801708E+02  1.043234520E+02 -8.064462831E+01  2.628049048E+02  1.250000000E+02  0.00000E+00  9.000E+00
      21     1     1     2   512   502  6.513741389E+01 -2.020752001E+02  3.967097185E+02  4.499509639E+02  9.344061824E-06  0.00000E+00  9.000E+00
#rwgt            2          11   2.3255229950951335E-003           8       89850           0
</event>
<event>
      5   9999  3.79277E-02  3.56807E+01 -1.00000E+00  1.47987E-01
      21    -1     0     0   502   511  0.000000000E+00  0.000000000E+00  1.176922054E+02  1.176922054E+02  0.000000000E+00  0.00000E+00  9.000E+00
      21    -1     0     0   501   502  0.000000000E+00  0.000000000E+00 -8.930487155E+02  8.930487155E+02  0.000000000E+00  0.00000E+00  9.000E+00
      25     1     1     2     0     0 -8.873852348E+01  5.609034213E+01 -6.585667416E+02  6.784952506E+02  1.250000000E+02  0.00000E+00  9.000E+00
      25     1     1     2     0     0  9.234197425E+01 -2.059205835E+01 -1.926727675E+02  2.483925692E+02  1.250000000E+02  0.00000E+00  9.000E+00
      21     1     1     2   501   511 -3.603450769E+00 -3.549828378E+01  7.588299903E+01  8.385310102E+01  1.348699152E-06  0.00000E+00  9.000E+00
#rwgt            1           1   5.1056486365578649E-002           8       89870           0
</event>
<event>
      5   9999  3.79277E-02  2.05807E+02 -1.00000E+00  1.11197E-01
      21    -1     0     0   502   501  0.000000000E+00  0.000000000E+00  5.061789088E+02  5.061789088E+02  0.000000000E+00  0.00000E+00  9.000E+00
       2    -1     0     0   501     0  0.000000000E+00  0.000000000E+00 -9.036779966E+02  9.036779966E+02  0.000000000E+00  0.00000E+00  9.000E+00
      25     1     1     2     0     0 -3.779476693E+01  2.175374768E+02 -1.110032021E+02  2.769435125E+02  1.250000000E+02  0.00000E+00  9.000E+00
      25     1     1     2     0     0  2.313207780E+02 -1.475076650E+02  3.511853574E+02  4.628433524E+02  1.250000000E+02  0.00000E+00  9.000E+00
       2     1     1     2   502     0 -1.935260110E+02 -7.002981178E+01 -6.376812431E+02  6.700700406E+02  7.629394531E-06  0.00000E+00  9.000E+00
#rwgt            1           1   4.3311903128321234E-002           8       90031           0
</event>
<event>
      5   9999  3.79277E-02  3.96859E+01 -1.00000E+00  1.45053E-01
      21    -1     0     0   511   501  0.000000000E+00  0.000000000E+00  3.557739286E+01  3.557739286E+01  0.000000000E+00  0.00000E+00  9.000E+00
      21    -1     0     0   501   502  0.000000000E+00  0.000000000E+00 -1.975547508E+03  1.975547508E+03  0.000000000E+00  0.00000E+00  9.000E+00
      25     1     1     2     0     0  9.669247635E+01 -1.337214082E+01 -3.628276272E+02  3.959761814E+02  1.250000000E+02  0.00000E+00  9.000E+00
      25     1     1     2     0     0 -5.710182266E+01  1.062439250E+01 -1.568484762E+03  1.574529436E+03  1.250000000E+02  0.00000E+00  9.000E+00
      21     1     1     2   511   502 -3.959065370E+01  2.747748315E+00 -8.657725908E+00  4.061928358E+01  1.951540177E-06  0.00000E+00  9.000E+00
#rwgt            1           1  0.10879824230411078                8       90171           0
</event>
<event>
      5   9999  3.79277E-02  6.39561E+01 -1.00000E+00  1.33238E-01
      21    -1     0     0   502   512  0.000000000E+00  0.000000000E+00  8.643320781E+02  8.643320781E+02  0.000000000E+00  0.00000E+00  9.000E+00
      21    -1     0     0   501   502  0.000000000E+00  0.000000000E+00 -1.116539858E+02  1.116539858E+02  0.000000000E+00  0.00000E+00  9.000E+00
      25     1     1     2     0     0  2.331517972E+02 -1.276578214E+01  1.719310987E+02  3.157657809E+02  1.250000000E+02  0.00000E+00  9.000E+00
      25     1     1     2     0     0 -1.986207820E+02 -4.106726149E+01  3.707573558E+02  4.407071044E+02  1.250000000E+02  0.00000E+00  9.000E+00
      21     1     1     2   501   512 -3.453101519E+01  5.383304363E+01  2.099896378E+02  2.195131786E+02  3.814697266E-06  0.00000E+00  9.000E+00
#rwgt            1           1   4.4117083334484157E-002           8       90246           0
</event>
<event>
      5   9999  3.79277E-02  2.90181E+01 -1.00000E+00  1.54050E-01
      21    -1     0     0   511   501  0.000000000E+00  0.000000000E+00  1.537864279E+02  1.537864279E+02  0.000000000E+00  0.00000E+00  9.000E+00
      21    -1     0     0   501   502  0.000000000E+00  0.000000000E+00 -5.572044188E+02  5.572044188E+02  0.000000000E+00  0.00000E+00  9.000E+00
      25     1     1     2     0     0  1.486293941E+02  1.922082248E+02 -1.994893228E+02  3.383130036E+02  1.250000000E+02  0.00000E+00  9.000E+00
      25     1     1     2     0     0 -1.758775067E+02 -1.822288277E+02 -1.907387149E+02  3.408027294E+02  1.250000000E+02  0.00000E+00  9.000E+00
      21     1     1     2   511   502  2.724811260E+01 -9.979397097E+00 -1.318995321E+01  3.187511369E+01  1.685873940E-07  0.00000E+00  9.000E+00
#rwgt            1           1   4.0985468501532396E-002           8       90367           0
</event>
<event>
      5   9999  3.79277E-02  9.81920E+01 -1.00000E+00  1.24185E-01
      21    -1     0     0   502   512  0.000000000E+00  0.000000000E+00  2.269235335E+01  2.269235335E+01  0.000000000E+00  0.00000E+00  9.000E+00
      21    -1     0     0   501   502  0.000000000E+00  0.000000000E+00 -2.839753771E+03  2.839753771E+03  0.000000000E+00  0.00000E+00  9.000E+00
      25     1     1     2     0     0 -7.598845652E+01 -9.454900501E+01 -1.972502387E+03  1.980177877E+03  1.250000000E+02  0.00000E+00  9.000E+00
      25     1     1     2     0     0  8.181902015E+01 -3.469748947E+00 -6.089269482E+02  6.269955498E+02  1.250000000E+02  0.00000E+00  9.000E+00
      21     1     1     2   501   512 -5.830563637E+00  9.801875395E+01 -2.356320829E+02  2.552726975E+02  3.814697266E-06  0.00000E+00  9.000E+00
#rwgt            1           1   5.9037927469993562E-002           8       90549           0
</event>
<event>
      5   9999  3.79277E-02  3.23639E+01 -1.00000E+00  1.50787E-01
      21    -1     0     0   511   501  0.000000000E+00  0.000000000E+00  6.289271122E+01  6.289271122E+01  0.000000000E+00  0.00000E+00  9.000E+00
      21    -1     0     0   501   502  0.000000000E+00  0.000000000E+00 -1.032826489E+03  1.032826489E+03  0.000000000E+00  0.00000E+00  9.000E+00
      25     1     1     2     0     0  7.933165033E+01  1.512655761E+01 -5.803570118E+02  5.991340289E+02  1.250000000E+02  0.00000E+00  9.000E+00
      25     1     1     2     0     0 -5.630337372E+01  7.613695971E+00 -4.261643423E+02  4.477377412E+02  1.250000000E+02  0.00000E+00  9.000E+00
      21     1     1     2   511   502 -2.302827661E+01 -2.274025359E+01  3.658757648E+01  4.884742991E+01  2.078484985E-06  0.00000E+00  9.000E+00
#rwgt            1           1   5.1194685726655850E-002           8       90679           0
</event>
<event>
      5   9999  3.79277E-02  7.66830E+01 -1.00000E+00  1.29246E-01
      21    -1     0     0   502   501  0.000000000E+00  0.000000000E+00  5.780539457E+02  5.780539457E+02  0.000000000E+00  0.00000E+00  9.000E+00
      21    -1     0     0   512   502  0.000000000E+00  0.000000000E+00 -1.493917988E+02  1.493917988E+02  0.000000000E+00  0.00000E+00  9.000E+00
      25     1     1     2     0     0 -1.433237615E+02 -9.480204524E+01  1.929117228E+02  2.870001066E+02  1.250000000E+02  0.00000E+00  9.000E+00
      25     1     1     2     0     0  2.196164746E+02  1.025289095E+02  2.405143457E+02  3.636148013E+02  1.250000000E+02  0.00000E+00  9.000E+00
      21     1     1     2   512   501 -7.629271308E+01 -7.726864268E+00 -4.763921616E+00  7.683083658E+01  1.212775108E-06  0.00000E+00  9.000E+00
#rwgt            1           1   3.5601781017722080E-002           8       90831           0
</event>
<event>
      5   9999  3.79277E-02  1.09370E+02 -1.00000E+00  1.22103E-01
      21    -1     0     0   502   501  0.000000000E+00  0.000000000E+00  6.507392267E+02  6.507392267E+02  0.000000000E+00  0.00000E+00  9.000E+00
       2    -1     0     0   501     0  0.000000000E+00  0.000000000E+00 -1.496568049E+03  1.496568049E+03  0.000000000E+00  0.00000E+00  9.000E+00
      25     1     1     2     0     0 -2.246123781E+02  1.258741797E+01  6.443587816E+01  2.653038746E+02  1.250000000E+02  0.00000E+00  9.000E+00
      25     1     1     2     0     0  1.391617267E+02 -8.085164872E+01  4.622299794E+02  5.051579250E+02  1.250000000E+02  0.00000E+00  9.000E+00
       2     1     1     2   502     0  8.545065143E+01  6.826423075E+01 -1.372494680E+03  1.376845476E+03  0.000000000E+00  0.00000E+00  9.000E+00
#rwgt            1           1   3.6966245877105508E-002           8       90965           0
</event>
<event>
      5   9999  3.79277E-02  4.62332E+01 -1.00000E+00  1.41045E-01
      21    -1     0     0   502   501  0.000000000E+00  0.000000000E+00  3.789354120E+01  3.789354120E+01  0.000000000E+00  0.00000E+00  9.000E+00
       2    -1     0     0   501     0  0.000000000E+00  0.000000000E+00 -1.060024826E+03  1.060024826E+03  0.000000000E+00  0.00000E+00  9.000E+00
      25     1     1     2     0     0  9.764095105E+00  4.102853218E+01 -7.439039537E+02  7.555109333E+02  1.250000000E+02  0.00000E+00  9.000E+00
      25     1     1     2     0     0 -5.364577971E+01 -2.647150107E+01 -1.414153080E+02  1.979946954E+02  1.250000000E+02  0.00000E+00  9.000E+00
       2     1     1     2   502     0  4.388168460E+01 -1.455703111E+01 -1.368120235E+02  1.444127389E+02  1.907348633E-06  0.00000E+00  9.000E+00
#rwgt            1           1   4.0622233579819776E-002           8       91040           0
</event>
<event>
      5   9999  3.79277E-02  4.76158E+01 -1.00000E+00  1.40297E-01
      21    -1     0     0   511   501  0.000000000E+00  0.000000000E+00  2.538793891E+02  2.538793891E+02  0.000000000E+00  0.00000E+00  9.000E+00
      21    -1     0     0   501   502  0.000000000E+00  0.000000000E+00 -2.260279780E+02  2.260279780E+02  0.000000000E+00  0.00000E+00  9.000E+00
      25     1     1     2     0     0 -1.276619975E+02 -1.199321455E+02 -1.937867983E+01  2.160598027E+02  1.250000000E+02  0.00000E+00  9.000E+00
      25     1     1     2     0     0  9.770519305E+01  8.292060080E+01 -2.142692885E+01  1.802948809E+02  1.250000000E+02  0.00000E+00  9.000E+00
      21     1     1     2   511   502  2.995680441E+01  3.701154466E+01  6.865701973E+01  8.355268354E+01  0.000000000E+00  0.00000E+00  9.000E+00
#rwgt            2          11   1.4691846155837959E-003           8       91211           0
</event>
<event>
      5   9999  3.79277E-02  8.40371E+01 -1.00000E+00  1.27323E-01
      21    -1     0     0   512   501  0.000000000E+00  0.000000000E+00  1.278967295E+02  1.278967295E+02  0.000000000E+00  0.00000E+00  9.000E+00
      21    -1     0     0   501   502  0.000000000E+00  0.000000000E+00 -8.971647843E+02  8.971647843E+02  0.000000000E+00  0.00000E+00  9.000E+00
      25     1     1     2     0     0 -3.630917990E+01  1.315564746E+02 -7.756190962E+02  7.973929050E+02  1.250000000E+02  0.00000E+00  9.000E+00
      25     1     1     2     0     0  2.070281396E+01 -4.898117513E+01 -2.471923400E+01  1.380717297E+02  1.250000000E+02  0.00000E+00  9.000E+00
      21     1     1     2   512   502  1.560636594E+01 -8.257529945E+01  3.107027537E+01  8.959687912E+01  1.507891493E-06  0.00000E+00  9.000E+00
#rwgt            1           1   4.6059443157786949E-002           8       91276           0
</event>
<event>
      5   9999  3.79277E-02  6.93581E+01 -1.00000E+00  1.31424E-01
      21    -1     0     0   502   501  0.000000000E+00  0.000000000E+00  2.513330873E+02  2.513330873E+02  0.000000000E+00  0.00000E+00  9.000E+00
      21    -1     0     0   511   502  0.000000000E+00  0.000000000E+00 -2.787788252E+02  2.787788252E+02  0.000000000E+00  0.00000E+00  9.000E+00
      25     1     1     2     0     0  7.164368728E+01 -1.362084210E+02  1.247031648E+01  1.986606671E+02  1.250000000E+02  0.00000E+00  9.000E+00
      25     1     1     2     0     0 -7.199112320E+01  2.055656595E+02  5.964366868E-01  2.511280906E+02  1.250000000E+02  0.00000E+00  9.000E+00
      21     1     1     2   511   501  3.474359201E-01 -6.935723850E+01 -4.051249105E+01  8.032315466E+01  1.651812370E-06  0.00000E+00  9.000E+00
#rwgt            1           1   3.8160043461067876E-002           8       91364           0
</event>
<event>
      5   9999  3.79277E-02  3.51484E+01 -1.00000E+00  1.48411E-01
      21    -1     0     0   502   501  0.000000000E+00  0.000000000E+00  4.970981930E+02  4.970981930E+02  0.000000000E+00  0.00000E+00  9.000E+00
      21    -1     0     0   512   502  0.000000000E+00  0.000000000E+00 -3.336764068E+02  3.336764068E+02  0.000000000E+00  0.00000E+00  9.000E+00
      25     1     1     2     0     0 -3.923681705E+01  1.644537424E+02 -1.097434368E+02  2.371775350E+02  1.250000000E+02  0.00000E+00  9.000E+00
      25     1     1     2     0     0  2.744993728E+01 -1.975668482E+02  3.988262950E+02  4.631129151E+02  1.250000000E+02  0.00000E+00  9.000E+00
      21     1     1     2   512   501  1.178687978E+01  3.311310580E+01 -1.256610719E+02  1.304841496E+02  3.015782986E-06  0.00000E+00  9.000E+00
#rwgt            1           1   3.0450813502842858E-002           8       91451           0
</event>
<event>
      5   9999  3.79277E-02  1.61404E+01 -1.00000E+00  1.74437E-01
      21    -1     0     0   502   501  0.000000000E+00  0.000000000E+00  5.616746220E+01  5.616746220E+01  0.000000000E+00  0.00000E+00  9.000E+00
      21    -1     0     0   501   511  0.000000000E+00  0.000000000E+00 -1.069506679E+03  1.069506679E+03  0.000000000E+00  0.00000E+00  9.000E+00
      25     1     1     2     0     0  4.213720659E+01 -1.919573334E+02 -3.701080587E+02  4.372963951E+02  1.250000000E+02  0.00000E+00  9.000E+00
      25     1     1     2     0     0 -5.312120482E+01  1.801308769E+02 -5.625776355E+02  6.061250623E+02  1.250000000E+02  0.00000E+00  9.000E+00
      21     1     1     2   502   511  1.098399823E+01  1.182645649E+01 -8.065352239E+01  8.225268363E+01  0.000000000E+00  0.00000E+00  9.000E+00
#rwgt            1           1   4.2239024571177911E-002           8       91729           0
</event>
<event>
      5   9999  3.79277E-02  1.81898E+01 -1.00000E+00  1.69842E-01
      21    -1     0     0   502   512  0.000000000E+00  0.000000000E+00  1.553838598E+03  1.553838598E+03  0.000000000E+00  0.00000E+00  9.000E+00
      21    -1     0     0   501   502  0.000000000E+00  0.000000000E+00 -1.846402556E+02  1.846402556E+02  0.000000000E+00  0.00000E+00  9.000E+00
      25     1     1     2     0     0  1.046273814E+02  2.626693073E+01 -8.659314225E+01  1.864409099E+02  1.250000000E+02  0.00000E+00  9.000E+00
      25     1     1     2     0     0 -1.095711861E+02 -4.377200880E+01  1.056293760E+02  2.017533114E+02  1.250000000E+02  0.00000E+00  9.000E+00
      21     1     1     2   501   512  4.943804708E+00  1.750507807E+01  1.350162109E+03  1.350284633E+03  1.525878906E-05  0.00000E+00  9.000E+00
#rwgt            1           1   5.4526890989271791E-002           8       91948           0
</event>
<event>
      5   9999  3.79277E-02  2.98027E+01 -1.00000E+00  1.53239E-01
      21    -1     0     0   502   501  0.000000000E+00  0.000000000E+00  6.634914371E+01  6.634914371E+01  0.000000000E+00  0.00000E+00  9.000E+00
      21    -1     0     0   511   502  0.000000000E+00  0.000000000E+00 -6.441805984E+02  6.441805984E+02  0.000000000E+00  0.00000E+00  9.000E+00
      25     1     1     2     0     0  4.134027218E+01  5.094900845E+01 -4.580624568E+02  4.793235169E+02  1.250000000E+02  0.00000E+00  9.000E+00
      25     1     1     2     0     0 -5.210604600E+01 -7.873932710E+01 -6.653275789E+01  1.701955626E+02  1.250000000E+02  0.00000E+00  9.000E+00
      21     1     1     2   511   501  1.076577382E+01  2.779031865E+01 -5.323624004E+01  6.101066260E+01  9.536743164E-07  0.00000E+00  9.000E+00
#rwgt            1           1   3.1351972888892042E-002           8       92080           0
</event>
<event>
      5   9999  3.79277E-02  6.35381E+00 -1.00000E+00  2.21676E-01
      21    -1     0     0   502   501  0.000000000E+00  0.000000000E+00  8.216116407E+02  8.216116407E+02  0.000000000E+00  0.00000E+00  9.000E+00
      -1    -1     0     0     0   502  0.000000000E+00  0.000000000E+00 -1.242363002E+02  1.242363002E+02  0.000000000E+00  0.00000E+00  9.000E+00
      25     1     1     2     0     0 -8.779004666E+01 -7.435142595E+01  1.861433226E+02  2.520110382E+02  1.250000000E+02  0.00000E+00  9.000E+00
      25     1     1     2     0     0  8.797545434E+01  8.070253421E+01  5.900072882E+02  6.148058065E+02  1.250000000E+02  0.00000E+00  9.000E+00
      -1     1     1     2     0   501 -1.854076885E-01 -6.351108259E+00 -7.877527032E+01  7.903109619E+01  2.132480600E-06  0.00000E+00  9.000E+00
#rwgt            1           1   4.7285644985899732E-002           8       92187           0
</event>
<event>
      5   9999  3.79277E-02  5.10458E+01 -1.00000E+00  1.38564E-01
      21    -1     0     0   502   501  0.000000000E+00  0.000000000E+00  7.587986390E+01  7.587986390E+01  0.000000000E+00  0.00000E+00  9.000E+00
      21    -1     0     0   501   511  0.000000000E+00  0.000000000E+00 -7.690721303E+02  7.690721303E+02  0.000000000E+00  0.00000E+00  9.000E+00
      25     1     1     2     0     0  4.362407877E+01 -1.234596544E+02 -1.460498366E+02  2.325960045E+02  1.250000000E+02  0.00000E+00  9.000E+00
      25     1     1     2     0     0 -6.796816878E+01  1.683266019E+02 -4.013685550E+02  4.579030834E+02  1.250000000E+02  0.00000E+00  9.000E+00
      21     1     1     2   502   511  2.434409001E+01 -4.486694744E+01 -1.457738748E+02  1.544529063E+02  2.697398305E-06  0.00000E+00  9.000E+00
#rwgt            1           1   3.1553126653314147E-002           8       92542           0
</event>
<event>
      5   9999  3.79277E-02  1.96964E+01 -1.00000E+00  1.66919E-01
      21    -1     0     0   502   501  0.000000000E+00  0.000000000E+00  2.279501031E+03  2.279501031E+03  0.000000000E+00  0.00000E+00  9.000E+00
      -1    -1     0     0     0   502  0.000000000E+00  0.000000000E+00 -9.878355285E+01  9.878355285E+01  0.000000000E+00  0.00000E+00  9.000E+00
      25     1     1     2     0     0 -1.305356947E+02  2.330664220E+01  1.535042053E+03  1.545820776E+03  1.250000000E+02  0.00000E+00  9.000E+00
      25     1     1     2     0     0  1.427497845E+02 -7.854585580E+00  7.256558834E+02  7.500937652E+02  1.250000000E+02  0.00000E+00  9.000E+00
      -1     1     1     2     0   501 -1.221408985E+01 -1.545205662E+01 -7.998045877E+01  8.237004207E+01  1.651812370E-06  0.00000E+00  9.000E+00
#rwgt            1           1   8.7493821623508397E-002           8       92636           0
</event>
<event>
      5   9999  3.79277E-02  2.77508E+01 -1.00000E+00  1.55428E-01
      21    -1     0     0   502   501  0.000000000E+00  0.000000000E+00  1.126431896E+02  1.126431896E+02  0.000000000E+00  0.00000E+00  9.000E+00
      21    -1     0     0   511   502  0.000000000E+00  0.000000000E+00 -4.862068296E+02  4.862068296E+02  0.000000000E+00  0.00000E+00  9.000E+00
      25     1     1     2     0     0  1.319084151E+02  8.392324394E+01 -8.667659835E+01  2.181301757E+02  1.250000000E+02  0.00000E+00  9.000E+00
      25     1     1     2     0     0 -1.556301384E+02 -9.832426496E+01 -2.565605157E+02  3.396125723E+02  1.250000000E+02  0.00000E+00  9.000E+00
      21     1     1     2   511   501  2.372172328E+01  1.440102102E+01 -3.032652601E+01  4.110727115E+01  7.539457465E-07  0.00000E+00  9.000E+00
#rwgt            1           1  0.14572375120087847                8       92843           0
</event>
<event>
      5   9999  3.79277E-02  1.77382E+02 -1.00000E+00  1.13579E-01
      21    -1     0     0   502   501  0.000000000E+00  0.000000000E+00  3.713773935E+02  3.713773935E+02  0.000000000E+00  0.00000E+00  9.000E+00
       1    -1     0     0   501     0  0.000000000E+00  0.000000000E+00 -5.673336309E+02  5.673336309E+02  0.000000000E+00  0.00000E+00  9.000E+00
      25     1     1     2     0     0  1.470672898E+02 -3.794432054E+01  1.878142351E+01  1.976013691E+02  1.250000000E+02  0.00000E+00  9.000E+00
      25     1     1     2     0     0 -9.047393766E+01 -1.301672654E+02  2.036009337E+02  2.867183123E+02  1.250000000E+02  0.00000E+00  9.000E+00
       1     1     1     2   502     0 -5.659335216E+01  1.681115859E+02 -4.183385946E+02  4.543913430E+02  9.344061824E-06  0.00000E+00  9.000E+00
#rwgt            2          12   4.6167953807406620E-004           8       92953           0
</event>
<event>
      5   9999  3.79277E-02  1.90464E+01 -1.00000E+00  1.68139E-01
      21    -1     0     0   502   501  0.000000000E+00  0.000000000E+00  2.006579167E+03  2.006579167E+03  0.000000000E+00  0.00000E+00  9.000E+00
      21    -1     0     0   501   511  0.000000000E+00  0.000000000E+00 -4.880568415E+01  4.880568415E+01  0.000000000E+00  0.00000E+00  9.000E+00
      25     1     1     2     0     0 -3.355780024E+01 -2.599823443E+02  7.657799847E+02  8.189999574E+02  1.250000000E+02  0.00000E+00  9.000E+00
      25     1     1     2     0     0  4.491172050E+01  2.752746334E+02  1.155250978E+03  1.194999166E+03  1.250000000E+02  0.00000E+00  9.000E+00
      21     1     1     2   502   511 -1.135392026E+01 -1.529228905E+01  3.674252057E+01  4.138572734E+01  4.768371582E-07  0.00000E+00  9.000E+00
#rwgt            1           1   3.8274603864159901E-002           8       93062           0
</event>
<event>
      5   9999  3.79277E-02  1.18094E+01 -1.00000E+00  1.87762E-01
      21    -1     0     0   512   501  0.000000000E+00  0.000000000E+00  2.762646661E+01  2.762646661E+01  0.000000000E+00  0.00000E+00  9.000E+00
      21    -1     0     0   501   502  0.000000000E+00  0.000000000E+00 -1.350967444E+03  1.350967444E+03  0.000000000E+00  0.00000E+00  9.000E+00
      25     1     1     2     0     0  8.613349836E+01  9.741169811E+01 -6.808921046E+02  7.043770841E+02  1.250000000E+02  0.00000E+00  9.000E+00
      25     1     1     2     0     0 -9.785487938E+01 -9.597249926E+01 -6.312487069E+02  6.579409001E+02  1.250000000E+02  0.00000E+00  9.000E+00
      21     1     1     2   512   502  1.172138103E+01 -1.439198849E+00 -1.120016596E+01  1.627592652E+01  2.920019320E-07  0.00000E+00  9.000E+00
#rwgt            1           1   6.4131071678584894E-002           8       93262           0
</event>
<event>
      5   9999  3.79277E-02  5.07903E+01 -1.00000E+00  1.38688E-01
      21    -1     0     0   502   501  0.000000000E+00  0.000000000E+00  5.823583261E+02  5.823583261E+02  0.000000000E+00  0.00000E+00  9.000E+00
      21    -1     0     0   511   502  0.000000000E+00  0.000000000E+00 -2.305556203E+02  2.305556203E+02  0.000000000E+00  0.00000E+00  9.000E+00
      25     1     1     2     0     0 -5.348638671E+01 -8.312540980E+01  1.499743959E+02  2.188331482E+02  1.250000000E+02  0.00000E+00  9.000E+00
      25     1     1     2     0     0  9.190041312E+01  4.989864873E+01  3.775196081E+02  4.111953496E+02  1.250000000E+02  0.00000E+00  9.000E+00
      21     1     1     2   511   501 -3.841402640E+01  3.322676107E+01 -1.756912981E+02  1.828854486E+02  1.907348633E-06  0.00000E+00  9.000E+00
#rwgt            1           1   4.8984417161576532E-002           8       93481           0
</event>
<event>
      5   9999  3.79277E-02  2.08532E+01 -1.00000E+00  1.64886E-01
      21    -1     0     0   502   512  0.000000000E+00  0.000000000E+00  1.063474747E+03  1.063474747E+03  0.000000000E+00  0.00000E+00  9.000E+00
      21    -1     0     0   501   502  0.000000000E+00  0.000000000E+00 -4.641507861E+02  4.641507861E+02  0.000000000E+00  0.00000E+00  9.000E+00
      25     1     1     2     0     0  2.622617938E+02 -1.420541702E+02 -1.407454321E+02  3.526966295E+02  1.250000000E+02  0.00000E+00  9.000E+00
      25     1     1     2     0     0 -2.757855365E+02  1.579275015E+02 -8.312262635E+01  3.514727997E+02  1.250000000E+02  0.00000E+00  9.000E+00
      21     1     1     2   501   512  1.352374268E+01 -1.587333128E+01  8.231920194E+02  8.234561040E+02  0.000000000E+00  0.00000E+00  9.000E+00
#rwgt            1           1   3.0425117056666319E-002           8       93557           0
</event>
<event>
      5   9999  3.79277E-02  5.54147E+01 -1.00000E+00  1.36575E-01
       2    -1     0     0   502     0  0.000000000E+00  0.000000000E+00  9.021653968E+02  9.021653968E+02  0.000000000E+00  0.00000E+00  9.000E+00
      21    -1     0     0   501   502  0.000000000E+00  0.000000000E+00 -1.374798376E+02  1.374798376E+02  0.000000000E+00  0.00000E+00  9.000E+00
      25     1     1     2     0     0  5.875646355E+01  2.014981272E+02  2.490941781E+02  3.488935753E+02  1.250000000E+02  0.00000E+00  9.000E+00
      25     1     1     2     0     0 -2.568294866E+01 -1.570354303E+02  3.303866026E+01  2.050275428E+02  1.250000000E+02  0.00000E+00  9.000E+00
       2     1     1     2   501     0 -3.307351489E+01 -4.446269687E+01  4.825527208E+02  4.857241163E+02  0.000000000E+00  0.00000E+00  9.000E+00
#rwgt            1           1   4.4225400126325441E-002           8       93789           0
</event>
<event>
      5   9999  3.79277E-02  9.95704E+01 -1.00000E+00  1.23912E-01
      21    -1     0     0   502   511  0.000000000E+00  0.000000000E+00  3.821741549E+02  3.821741549E+02  0.000000000E+00  0.00000E+00  9.000E+00
      21    -1     0     0   501   502  0.000000000E+00  0.000000000E+00 -1.088286594E+02  1.088286594E+02  0.000000000E+00  0.00000E+00  9.000E+00
      25     1     1     2     0     0  7.527310518E+01  5.779231629E+01  1.451713869E+02  2.137889702E+02  1.250000000E+02  0.00000E+00  9.000E+00
      25     1     1     2     0     0 -5.350203393E+01  3.936881863E+01  4.830517375E+01  1.495685840E+02  1.250000000E+02  0.00000E+00  9.000E+00
      21     1     1     2   501   511 -2.177107124E+01 -9.716113492E+01  7.986893483E+01  1.276452601E+02  1.348699152E-06  0.00000E+00  9.000E+00
#rwgt            1           1   7.1771652675122546E-002           8       93912           0
</event>
<event>
      5   9999  3.79277E-02  1.45133E+02 -1.00000E+00  1.16964E-01
      -4    -1     0     0     0   501  0.000000000E+00  0.000000000E+00  3.260872305E+02  3.260872305E+02  0.000000000E+00  0.00000E+00  9.000E+00
      21    -1     0     0   501   502  0.000000000E+00  0.000000000E+00 -6.226460470E+02  6.226460470E+02  0.000000000E+00  0.00000E+00  9.000E+00
      25     1     1     2     0     0 -3.992903383E+01 -3.197607975E+02 -1.973123352E+02  3.979930314E+02  1.250000000E+02  0.00000E+00  9.000E+00
      25     1     1     2     0     0  1.293893148E+02  2.054789697E+02 -2.287331615E+02  3.562401731E+02  1.250000000E+02  0.00000E+00  9.000E+00
      -4     1     1     2     0   502 -8.946028095E+01  1.142818278E+02  1.294866803E+02  1.945000730E+02  1.907348633E-06  0.00000E+00  9.000E+00
#rwgt            1           1   2.6187626771245733E-002           8       93970           0
</event>
<event>
      5   9999  3.79277E-02  3.39964E+01 -1.00000E+00  1.49361E-01
      -2    -1     0     0     0   501  0.000000000E+00  0.000000000E+00  3.477711242E+02  3.477711242E+02  0.000000000E+00  0.00000E+00  9.000E+00
      21    -1     0     0   501   502  0.000000000E+00  0.000000000E+00 -1.391495299E+03  1.391495299E+03  0.000000000E+00  0.00000E+00  9.000E+00
      25     1     1     2     0     0  2.207233380E+02 -7.746345216E+01 -8.428798872E+02  8.836237223E+02  1.250000000E+02  0.00000E+00  9.000E+00
      25     1     1     2     0     0 -1.868130618E+02  7.988183132E+01 -5.003012397E+02  5.542621739E+02  1.250000000E+02  0.00000E+00  9.000E+00
      -2     1     1     2     0   502 -3.391027624E+01 -2.418379157E+00  2.994569525E+02  3.013805266E+02  6.607249480E-06  0.00000E+00  9.000E+00
#rwgt            1           1   6.7171204745330795E-002           8       94346           0
</event>
<event>
      5   9999  3.79277E-02  1.07344E+02 -1.00000E+00  1.22459E-01
      21    -1     0     0   502   511  0.000000000E+00  0.000000000E+00  3.029962244E+03  3.029962244E+03  0.000000000E+00  0.00000E+00  9.000E+00
      21    -1     0     0   501   502  0.000000000E+00  0.000000000E+00 -3.833026048E+01  3.833026048E+01  0.000000000E+00  0.00000E+00  9.000E+00
      25     1     1     2     0     0  3.932689176E+01  1.469311675E+02  1.594135465E+03  1.606246635E+03  1.250000000E+02  0.00000E+00  9.000E+00
      25     1     1     2     0     0  5.064804776E+01 -8.838870374E+01  1.875265465E+02  2.473236611E+02  1.250000000E+02  0.00000E+00  9.000E+00
      21     1     1     2   501   511 -8.997493952E+01 -5.854246376E+01  1.209969973E+03  1.214722209E+03  2.157918644E-05  0.00000E+00  9.000E+00
#rwgt            2          11   4.1466938385943680E-004           8       94457           0
</event>
<event>
      5   9999  3.79277E-02  1.59974E+01 -1.00000E+00  1.74790E-01
      21    -1     0     0   512   501  0.000000000E+00  0.000000000E+00  2.628621722E+01  2.628621722E+01  0.000000000E+00  0.00000E+00  9.000E+00
      21    -1     0     0   501   502  0.000000000E+00  0.000000000E+00 -1.202576999E+03  1.202576999E+03  0.000000000E+00  0.00000E+00  9.000E+00
      25     1     1     2     0     0 -3.248972740E+01  8.109474346E+01 -7.720025480E+02  7.869211357E+02  1.250000000E+02  0.00000E+00  9.000E+00
      25     1     1     2     0     0  3.443520221E+01 -9.697338137E+01 -3.564177967E+02  3.914693675E+02  1.250000000E+02  0.00000E+00  9.000E+00
      21     1     1     2   512   502 -1.945474811E+00  1.587863791E+01 -4.787043742E+01  5.047271335E+01  6.743495762E-07  0.00000E+00  9.000E+00
#rwgt            1           1   5.2334966038248901E-002           8       94552           0
</event>
<event>
      5   9999  3.79277E-02  5.13233E+01 -1.00000E+00  1.38431E-01
      21    -1     0     0   502   501  0.000000000E+00  0.000000000E+00  1.473955693E+02  1.473955693E+02  0.000000000E+00  0.00000E+00  9.000E+00
      21    -1     0     0   511   502  0.000000000E+00  0.000000000E+00 -2.675775571E+02  2.675775571E+02  0.000000000E+00  0.00000E+00  9.000E+00
      25     1     1     2     0     0  1.079791168E+02  7.894806461E+01 -5.720469143E+01  1.918063171E+02  1.250000000E+02  0.00000E+00  9.000E+00
      25     1     1     2     0     0 -9.838036875E+01 -2.853040409E+01 -3.766366774E+01  1.659404495E+02  1.250000000E+02  0.00000E+00  9.000E+00
      21     1     1     2   511   501 -9.598748050E+00 -5.041766052E+01 -2.531362857E+01  5.722635973E+01  8.259061849E-07  0.00000E+00  9.000E+00
#rwgt            1           1   4.2159835189419494E-002           8       94835           0
</event>
<event>
      5   9999  3.79277E-02  1.67878E+02 -1.00000E+00  1.14488E-01
      21    -1     0     0   502   501  0.000000000E+00  0.000000000E+00  1.206172238E+02  1.206172238E+02  0.000000000E+00  0.00000E+00  9.000E+00
      21    -1     0     0   501   512  0.000000000E+00  0.000000000E+00 -8.489796287E+02  8.489796287E+02  0.000000000E+00  0.00000E+00  9.000E+00
      25     1     1     2     0     0  1.465665038E+02 -1.025184744E+02 -1.670872950E+02  2.748362090E+02  1.250000000E+02  0.00000E+00  9.000E+00
      25     1     1     2     0     0 -1.977935614E+02 -5.735316986E+01 -3.109187760E+02  3.933283161E+02  1.250000000E+02  0.00000E+00  9.000E+00
      21     1     1     2   502   512  5.122705761E+01  1.598716443E+02 -2.503563339E+02  3.014323274E+02  4.672030912E-06  0.00000E+00  9.000E+00
#rwgt            1           1   4.1640013282244849E-002           8       94997           0
</event>
<event>
      5   9999  3.79277E-02  2.94977E+01 -1.00000E+00  1.53551E-01
      21    -1     0     0   502   501  0.000000000E+00  0.000000000E+00  1.547776107E+02  1.547776107E+02  0.000000000E+00  0.00000E+00  9.000E+00
      21    -1     0     0   511   502  0.000000000E+00  0.000000000E+00 -2.409374717E+02  2.409374717E+02  0.000000000E+00  0.00000E+00  9.000E+00
      25     1     1     2     0     0  7.240200998E+01 -4.154351777E+01  6.938076436E+01  1.655494047E+02  1.250000000E+02  0.00000E+00  9.000E+00
      25     1     1     2     0     0 -6.078173697E+01  1.443111214E+01 -1.343140128E+02  1.938244839E+02  1.250000000E+02  0.00000E+00  9.000E+00
      21     1     1     2   511   501 -1.162027300E+01  2.711240563E+01 -2.122661262E+01  3.634119381E+01  6.743495762E-07  0.00000E+00  9.000E+00
#rwgt            1           1   4.5638697679211880E-002           8       95129           0
</event>
<event>
      5   9999  3.79277E-02  5.64037E+01 -1.00000E+00  1.36154E-01
      21    -1     0     0   502   501  0.000000000E+00  0.000000000E+00  5.031095203E+02  5.031095203E+02  0.000000000E+00  0.00000E+00  9.000E+00
      21    -1     0     0   512   502  0.000000000E+00  0.000000000E+00 -8.814788160E+01  8.814788160E+01  0.000000000E+00  0.00000E+00  9.000E+00
      25     1     1     2     0     0  7.210951410E+01 -9.432018398E+01  3.311640750E+02  3.733506712E+02  1.250000000E+02  0.00000E+00  9.000E+00
      25     1     1     2     0     0 -4.672939441E+01  4.394932473E+01  7.927571306E+01  1.613220944E+02  1.250000000E+02  0.00000E+00  9.000E+00
      21     1     1     2   512   501 -2.538011970E+01  5.037085924E+01  4.521850656E+00  5.658463634E+01  1.260183722E-06  0.00000E+00  9.000E+00
#rwgt            1           1   4.4036522140513325E-002           8       95204           0
</event>
<event>
      5   9999  3.79277E-02  9.12802E+01 -1.00000E+00  1.25637E-01
      21    -1     0     0   502   501  0.000000000E+00  0.000000000E+00  2.414835503E+02  2.414835503E+02  0.000000000E+00  0.00000E+00  9.000E+00
      21    -1     0     0   501   511  0.000000000E+00  0.000000000E+00 -3.386514312E+02  3.386514312E+02  0.000000000E+00  0.00000E+00  9.000E+00
      25     1     1     2     0     0 -5.250708171E+01  5.359842778E+01 -1.492412204E+02  2.086329959E+02  1.250000000E+02  0.00000E+00  9.000E+00
      25     1     1     2     0     0 -1.927335961E+01 -1.099867038E+02  1.589194262E+02  2.309738544E+02  1.250000000E+02  0.00000E+00  9.000E+00
      21     1     1     2   502   511  7.178044132E+01  5.638827602E+01 -1.068460866E+02  1.405281312E+02  0.000000000E+00  0.00000E+00  9.000E+00
#rwgt            1           1   4.2010792340718875E-002           8       95297           0
</event>
<event>
      5   9999  3.79277E-02  6.15854E+01 -1.00000E+00  1.34101E-01
      21    -1     0     0   502   501  0.000000000E+00  0.000000000E+00  3.991135176E+02  3.991135176E+02  0.000000000E+00  0.00000E+00  9.000E+00
      21    -1     0     0   501   512  0.000000000E+00  0.000000000E+00 -1.220873132E+02  1.220873132E+02  0.000000000E+00  0.00000E+00  9.000E+00
      25     1     1     2     0     0 -8.344974667E+00  1.166848773E+02  1.524857975E+02  2.292638603E+02  1.250000000E+02  0.00000E+00  9.000E+00
      25     1     1     2     0     0  6.932556072E+01 -1.252944799E+02  1.297358369E+02  2.301328474E+02  1.250000000E+02  0.00000E+00  9.000E+00
      21     1     1     2   502   512 -6.098058605E+01  8.609602570E+00 -5.195429987E+00  6.180412304E+01  1.885806563E-06  0.00000E+00  9.000E+00
#rwgt            1           1   4.6003094098821695E-002           8       95366           0
</event>
<event>
      5   9999  3.79277E-02  1.50377E+02 -1.00000E+00  1.16350E-01
      21    -1     0     0   502   501  0.000000000E+00  0.000000000E+00  1.676010418E+03  1.676010418E+03  0.000000000E+00  0.00000E+00  9.000E+00
      21    -1     0     0   501   511  0.000000000E+00  0.000000000E+00 -8.184301130E+01  8.184301130E+01  0.000000000E+00  0.00000E+00  9.000E+00
      25     1     1     2     0     0  4.096788640E+01  6.296289352E+00  1.031001252E+03  1.039377984E+03  1.250000000E+02  0.00000E+00  9.000E+00
      25     1     1     2     0     0  8.234889664E+01  7.976263951E+01  5.403907035E+02  5.663837320E+02  1.250000000E+02  0.00000E+00  9.000E+00
      21     1     1     2   502   511 -1.233167830E+02 -8.605892887E+01  2.277545116E+01  1.520917138E+02  3.251595902E-06  0.00000E+00  9.000E+00
#rwgt            1           1   7.2117666740305383E-002           8       95565           0
</event>
<event>
      5   9999  3.79277E-02  6.04675E+01 -1.00000E+00  1.34524E-01
      21    -1     0     0   502   512  0.000000000E+00  0.000000000E+00  2.105366223E+02  2.105366223E+02  0.000000000E+00  0.00000E+00  9.000E+00
      21    -1     0     0   501   502  0.000000000E+00  0.000000000E+00 -9.704811720E+02  9.704811720E+02  0.000000000E+00  0.00000E+00  9.000E+00
      25     1     1     2     0     0  1.382732618E+02 -1.304809792E+02 -6.204746535E+02  6.608771266E+02  1.250000000E+02  0.00000E+00  9.000E+00
      25     1     1     2     0     0 -1.007525551E+02  8.306253227E+01 -2.990787040E+02  3.494617759E+02  1.250000000E+02  0.00000E+00  9.000E+00
      21     1     1     2   501   512 -3.752070667E+01  4.741844690E+01  1.596088078E+02  1.706788917E+02  3.814697266E-06  0.00000E+00  9.000E+00
#rwgt            1           1   4.4659326815880598E-002           8       95759           0
</event>
<event>
      5   9999  3.79277E-02  4.12404E+01 -1.00000E+00  1.44022E-01
      21    -1     0     0   511   501  0.000000000E+00  0.000000000E+00  1.098867853E+03  1.098867853E+03  0.000000000E+00  0.00000E+00  9.000E+00
      21    -1     0     0   501   502  0.000000000E+00  0.000000000E+00 -7.947299913E+01  7.947299913E+01  0.000000000E+00  0.00000E+00  9.000E+00
      25     1     1     2     0     0  1.260014391E+02  1.017357041E+01  4.611177359E+02  4.942007998E+02  1.250000000E+02  0.00000E+00  9.000E+00
      25     1     1     2     0     0 -1.472473798E+02  2.517297152E+01  9.090436162E+01  2.149513255E+02  1.250000000E+02  0.00000E+00  9.000E+00
      21     1     1     2   511   502  2.124594070E+01 -3.534654193E+01  4.673727565E+02  4.691887270E+02  9.344061824E-06  0.00000E+00  9.000E+00
#rwgt            1           1   3.4821333328899966E-002           8       95841           0
</event>
<event>
      5   9999  3.79277E-02  8.33815E+01 -1.00000E+00  1.27485E-01
      21    -1     0     0   502   512  0.000000000E+00  0.000000000E+00  5.961218746E+02  5.961218746E+02  0.000000000E+00  0.00000E+00  9.000E+00
      21    -1     0     0   501   502  0.000000000E+00  0.000000000E+00 -1.454693289E+02  1.454693289E+02  0.000000000E+00  0.00000E+00  9.000E+00
      25     1     1     2     0     0  1.525906743E+02 -6.653947473E+01 -1.318713022E+01  2.085912654E+02  1.250000000E+02  0.00000E+00  9.000E+00
      25     1     1     2     0     0 -7.135852578E+01  4.772975006E+01  1.711477246E+02  2.286628782E+02  1.250000000E+02  0.00000E+00  9.000E+00
      21     1     1     2   501   512 -8.123214855E+01  1.880972468E+01  2.926919513E+02  3.043370599E+02  0.000000000E+00  0.00000E+00  9.000E+00
#rwgt            1           1   3.4204463951508633E-002           8       96034           0
</event>
<event>
      5   9999  3.79277E-02  7.13243E+01 -1.00000E+00  1.30810E-01
       2    -1     0     0   502     0  0.000000000E+00  0.000000000E+00  2.418709697E+03  2.418709697E+03  0.000000000E+00  0.00000E+00  9.000E+00
      21    -1     0     0   501   502  0.000000000E+00  0.000000000E+00 -1.543798827E+02  1.543798827E+02  0.000000000E+00  0.00000E+00  9.000E+00
      25     1     1     2     0     0  8.805640427E+01 -6.559645253E+01  2.519173301E+02  3.019009210E+02  1.250000000E+02  0.00000E+00  9.000E+00
      25     1     1     2     0     0 -7.445144665E+01  1.356111769E+02 -5.197301177E+01  2.055714065E+02  1.250000000E+02  0.00000E+00  9.000E+00
       2     1     1     2   501     0 -1.360495762E+01 -7.001472437E+01  2.064385496E+03  2.065617252E+03  0.000000000E+00  0.00000E+00  9.000E+00
#rwgt            1           1   4.8968094909662835E-002           8       96084           0
</event>
<event>
      5   9999  3.79277E-02  5.64286E+01 -1.00000E+00  1.36143E-01
      21    -1     0     0   502   511  0.000000000E+00  0.000000000E+00  2.498016982E+02  2.498016982E+02  0.000000000E+00  0.00000E+00  9.000E+00
      21    -1     0     0   501   502  0.000000000E+00  0.000000000E+00 -2.318193534E+02  2.318193534E+02  0.000000000E+00  0.00000E+00  9.000E+00
      25     1     1     2     0     0  4.325367518E+01  1.496019210E+02 -8.030122335E+01  2.152322040E+02  1.250000000E+02  0.00000E+00  9.000E+00
      25     1     1     2     0     0  7.911202823E+00 -1.258039869E+02  3.381775658E+01  1.807148884E+02  1.250000000E+02  0.00000E+00  9.000E+00
      21     1     1     2   501   511 -5.116487800E+01 -2.379793412E+01  6.446581158E+01  8.567395912E+01  1.348699152E-06  0.00000E+00  9.000E+00
#rwgt            1           1   3.7624381941516613E-002           8       96398           0
</event>
<event>
      5   9999  3.79277E-02  2.54326E+01 -1.00000E+00  1.58195E-01
       2    -1     0     0   502     0  0.000000000E+00  0.000000000E+00  2.089997452E+03  2.089997452E+03  0.000000000E+00  0.00000E+00  9.000E+00
      21    -1     0     0   501   502  0.000000000E+00  0.000000000E+00 -1.482182327E+02  1.482182327E+02  0.000000000E+00  0.00000E+00  9.000E+00
      25     1     1     2     0     0  7.201316118E+01  3.474142852E+01 -9.068453400E+01  1.739009688E+02  1.250000000E+02  0.00000E+00  9.000E+00
      25     1     1     2     0     0 -9.389664147E+01 -2.178263565E+01  3.777221453E+02  4.093776760E+02  1.250000000E+02  0.00000E+00  9.000E+00
       2     1     1     2   501     0  2.188348029E+01 -1.295879287E+01  1.654741608E+03  1.654937040E+03  2.157918644E-05  0.00000E+00  9.000E+00
#rwgt            1           1   3.3229206902172480E-002           8       96492           0
</event>
<event>
      5   9999  3.79277E-02  1.01669E+02 -1.00000E+00  1.23506E-01
      21    -1     0     0   502   501  0.000000000E+00  0.000000000E+00  1.849650567E+03  1.849650567E+03  0.000000000E+00  0.00000E+00  9.000E+00
      21    -1     0     0   501   511  0.000000000E+00  0.000000000E+00 -8.709890136E+01  8.709890136E+01  0.000000000E+00  0.00000E+00  9.000E+00
      25     1     1     2     0     0 -1.806546946E+02 -1.578082124E+02  1.962163266E+02  3.341637284E+02  1.250000000E+02  0.00000E+00  9.000E+00
      25     1     1     2     0     0  1.173919953E+02  7.821958913E+01  1.355235125E+03  1.368278637E+03  1.250000000E+02  0.00000E+00  9.000E+00
      21     1     1     2   502   511  6.326269931E+01  7.958862329E+01  2.111002145E+02  2.343071033E+02  4.672030912E-06  0.00000E+00  9.000E+00
#rwgt            1           1   4.1474107581066233E-002           8       96788           0
</event>
<event>
      5   9999  3.79277E-02  7.32803E+01 -1.00000E+00  1.30221E-01
      21    -1     0     0   512   501  0.000000000E+00  0.000000000E+00  4.030434526E+02  4.030434526E+02  0.000000000E+00  0.00000E+00  9.000E+00
      21    -1     0     0   501   502  0.000000000E+00  0.000000000E+00 -1.414094247E+02  1.414094247E+02  0.000000000E+00  0.00000E+00  9.000E+00
      25     1     1     2     0     0 -1.923666032E+01  2.319557997E+01  9.617907542E+01  1.605724091E+02  1.250000000E+02  0.00000E+00  9.000E+00
      25     1     1     2     0     0  6.070617787E+01 -8.361311633E+01 -3.890573231E+01  1.667784436E+02  1.250000000E+02  0.00000E+00  9.000E+00
      21     1     1     2   512   502 -4.146951754E+01  6.041753636E+01  2.043606848E+02  2.171020245E+02  2.697398305E-06  0.00000E+00  9.000E+00
#rwgt            1           1   4.0726193318172975E-002           8       96873           0
</event>
<event>
      5   9999  3.79277E-02  3.95838E+01 -1.00000E+00  1.45122E-01
      21    -1     0     0   502   501  0.000000000E+00  0.000000000E+00  5.599000953E+01  5.599000953E+01  0.000000000E+00  0.00000E+00  9.000E+00
      21    -1     0     0   511   502  0.000000000E+00  0.000000000E+00 -1.029114112E+03  1.029114112E+03  0.000000000E+00  0.00000E+00  9.000E+00
      25     1     1     2     0     0  1.078726837E+02 -6.764449534E+01 -2.460187156E+02  3.039119973E+02  1.250000000E+02  0.00000E+00  9.000E+00
      25     1     1     2     0     0 -1.439613424E+02  8.390751791E+01 -3.933777171E+02  4.451251150E+02  1.250000000E+02  0.00000E+00  9.000E+00
      21     1     1     2   511   501  3.608865873E+01 -1.626302256E+01 -3.337276696E+02  3.360670091E+02  3.814697266E-06  0.00000E+00  9.000E+00
#rwgt            1           1   3.7863078810517363E-002           8       96915           0
</event>
<event>
      5   9999  3.79277E-02  4.80309E+00 -1.00000E+00  2.46052E-01
      21    -1     0     0   512   501  0.000000000E+00  0.000000000E+00  7.311479767E+02  7.311479767E+02  0.000000000E+00  0.00000E+00  9.000E+00
      21    -1     0     0   501   502  0.000000000E+00  0.000000000E+00 -4.273745905E+01  4.273745905E+01  0.000000000E+00  0.00000E+00  9.000E+00
      25     1     1     2     0     0 -6.209992083E+01  3.650308563E+01  1.379615381E+02  1.996177883E+02  1.250000000E+02  0.00000E+00  9.000E+00
      25     1     1     2     0     0  6.392221651E+01 -4.094706314E+01  4.390717122E+02  4.627868626E+02  1.250000000E+02  0.00000E+00  9.000E+00
      21     1     1     2   512   502 -1.822295685E+00  4.443977508E+00  1.113772674E+02  1.114807849E+02  1.348699152E-06  0.00000E+00  9.000E+00
#rwgt            1           1   5.0529350890618122E-002           8       97018           0
</event>
<event>
      5   9999  3.79277E-02  1.86731E+02 -1.00000E+00  1.12744E-01
      21    -1     0     0   502   501  0.000000000E+00  0.000000000E+00  7.348842467E+02  7.348842467E+02  0.000000000E+00  0.00000E+00  9.000E+00
      -3    -1     0     0     0   502  0.000000000E+00  0.000000000E+00 -3.029630906E+02  3.029630906E+02  0.000000000E+00  0.00000E+00  9.000E+00
      25     1     1     2     0     0  7.524450503E+01  6.434301901E+01 -1.833634908E+02  2.429998547E+02  1.250000000E+02  0.00000E+00  9.000E+00
      25     1     1     2     0     0 -2.617298632E+02 -7.392311474E+01  2.738764725E+02  4.057098352E+02  1.250000000E+02  0.00000E+00  9.000E+00
      -3     1     1     2     0   501  1.864853582E+02  9.580095727E+00  3.414081745E+02  3.891376474E+02  3.814697266E-06  0.00000E+00  9.000E+00
#rwgt            1           1   4.6199697009057294E-002           8       97324           0
</event>
<event>
      5   9999  3.79277E-02  9.46270E+01 -1.00000E+00  1.24916E-01
      21    -1     0     0   502   501  0.000000000E+00  0.000000000E+00  1.979085907E+02  1.979085907E+02  0.000000000E+00  0.00000E+00  9.000E+00
      21    -1     0     0   501   511  0.000000000E+00  0.000000000E+00 -7.700446646E+02  7.700446646E+02  0.000000000E+00  0.00000E+00  9.000E+00
      25     1     1     2     0     0 -3.836396318E+01 -1.251356113E+02 -1.979041403E+01  1.820642068E+02  1.250000000E+02  0.00000E+00  9.000E+00
      25     1     1     2     0     0  1.230576194E+02  1.673404893E+02 -1.785215225E+01  2.430837641E+02  1.250000000E+02  0.00000E+00  9.000E+00
      21     1     1     2   502   511 -8.469365617E+01 -4.220487799E+01 -5.344935076E+02  5.428052844E+02  7.629394531E-06  0.00000E+00  9.000E+00
#rwgt            1           1   4.4108489066038731E-002           8       97616           0
</event>
<event>
      5   9999  3.79277E-02  1.84739E+01 -1.00000E+00  1.69264E-01
      21    -1     0     0   502   501  0.000000000E+00  0.000000000E+00  1.059621496E+02  1.059621496E+02  0.000000000E+00  0.00000E+00  9.000E+00
      21    -1     0     0   512   502  0.000000000E+00  0.000000000E+00 -3.950206945E+02  3.950206945E+02  0.000000000E+00  0.00000E+00  9.000E+00
      25     1     1     2     0     0 -1.097962627E+02 -2.696652041E+01 -1.464534187E+01  1.691800773E+02  1.250000000E+02  0.00000E+00  9.000E+00
      25     1     1     2     0     0  9.198518171E+01  3.187067448E+01 -2.001087573E+02  2.552362206E+02  1.250000000E+02  0.00000E+00  9.000E+00
      21     1     1     2   512   501  1.781108097E+01 -4.904154071E+00 -7.430444581E+01  7.656654621E+01  1.348699152E-06  0.00000E+00  9.000E+00
#rwgt            1           1   4.2229872096100469E-002           8       97735           0
</event>
<event>
      5   9999  3.79277E-02  1.48986E+02 -1.00000E+00  1.16510E-01
      21    -1     0     0   502   511  0.000000000E+00  0.000000000E+00  1.015152866E+03  1.015152866E+03  0.000000000E+00  0.00000E+00  9.000E+00
      21    -1     0     0   501   502  0.000000000E+00  0.000000000E+00 -1.079895100E+02  1.079895100E+02  0.000000000E+00  0.00000E+00  9.000E+00
      25     1     1     2     0     0  1.401736830E+02  1.702456175E+02  2.546777437E+02  3.593299108E+02  1.250000000E+02  0.00000E+00  9.000E+00
      25     1     1     2     0     0 -1.286323586E+02 -2.170749539E+01  1.356397723E+02  2.259217715E+02  1.250000000E+02  0.00000E+00  9.000E+00
      21     1     1     2   501   511 -1.154132439E+01 -1.485381222E+02  5.168458401E+02  5.378906936E+02  7.629394531E-06  0.00000E+00  9.000E+00
#rwgt            1           1   3.2899862656200783E-002           8       97831           0
</event>
<event>
      5   9999  3.79277E-02  3.76418E+02 -1.00000E+00  1.02486E-01
       2    -1     0     0   502     0  0.000000000E+00  0.000000000E+00  1.443312271E+03  1.443312271E+03  0.000000000E+00  0.00000E+00  9.000E+00
      21    -1     0     0   501   502  0.000000000E+00  0.000000000E+00 -2.534237066E+02  2.534237066E+02  0.000000000E+00  0.00000E+00  9.000E+00
      25     1     1     2     0     0 -1.501109583E+02 -2.439188931E+02  3.867433667E+02  4.972174151E+02  1.250000000E+02  0.00000E+00  9.000E+00
      25     1     1     2     0     0 -1.664083249E+02  4.018836340E+01 -9.000472376E+01  2.302882660E+02  1.250000000E+02  0.00000E+00  9.000E+00
       2     1     1     2   501     0  3.165192832E+02  2.037305297E+02  8.931499217E+02  9.692302966E+02  1.525878906E-05  0.00000E+00  9.000E+00
#rwgt            1           1   3.9761212748366151E-002           8       97963           0
</event>
<event>
      5   9999  3.79277E-02  1.52764E+01 -1.00000E+00  1.76640E-01
      -2    -1     0     0     0   501  0.000000000E+00  0.000000000E+00  9.051662474E+01  9.051662474E+01  0.000000000E+00  0.00000E+00  9.000E+00
      21    -1     0     0   501   502  0.000000000E+00  0.000000000E+00 -1.233354845E+03  1.233354845E+03  0.000000000E+00  0.00000E+00  9.000E+00
      25     1     1     2     0     0  1.562509793E+02 -6.973148001E+01 -4.499981110E+02  4.973933531E+02  1.250000000E+02  0.00000E+00  9.000E+00
      25     1     1     2     0     0 -1.587645841E+02  5.466326617E+01 -7.441033477E+02  7.729871007E+02  1.250000000E+02  0.00000E+00  9.000E+00
      -2     1     1     2     0   502  2.513604799E+00  1.506821384E+01  5.126323788E+01  5.349101640E+01  2.939421655E-06  0.00000E+00  9.000E+00
#rwgt            1           1   9.7215749531050208E-002           8       98018           0
</event>
<event>
      5   9999  3.79277E-02  3.40935E+01 -1.00000E+00  1.49279E-01
      21    -1     0     0   502   511  0.000000000E+00  0.000000000E+00  4.199338207E+02  4.199338207E+02  0.000000000E+00  0.00000E+00  9.000E+00
      21    -1     0     0   501   502  0.000000000E+00  0.000000000E+00 -4.084710245E+02  4.084710245E+02  0.000000000E+00  0.00000E+00  9.000E+00
      25     1     1     2     0     0  1.185197361E+02  4.471732761E+01 -3.174237904E+02  3.639085461E+02  1.250000000E+02  0.00000E+00  9.000E+00
      25     1     1     2     0     0 -1.440428302E+02 -2.211339166E+01  7.152412355E+01  2.048854296E+02  1.250000000E+02  0.00000E+00  9.000E+00
      21     1     1     2   501   511  2.552309402E+01 -2.260393595E+01  2.573624629E+02  2.596108695E+02  3.814697266E-06  0.00000E+00  9.000E+00
#rwgt            1           1   2.3170808552243224E-002           8       98236           0
</event>
<event>
      5   9999  3.79277E-02  1.79410E+01 -1.00000E+00  1.70359E-01
      21    -1     0     0   502   501  0.000000000E+00  0.000000000E+00  1.988224668E+02  1.988224668E+02  0.000000000E+00  0.00000E+00  9.000E+00
      21    -1     0     0   501   512  0.000000000E+00  0.000000000E+00 -4.950028388E+02  4.950028388E+02  0.000000000E+00  0.00000E+00  9.000E+00
      25     1     1     2     0     0  1.265003608E+02  9.131390510E+01 -8.540669490E-01  1.999157322E+02  1.250000000E+02  0.00000E+00  9.000E+00
      25     1     1     2     0     0 -1.357094903E+02 -1.067110415E+02 -1.571154563E+01  2.137198278E+02  1.250000000E+02  0.00000E+00  9.000E+00
      21     1     1     2   502   512  9.209129496E+00  1.539713639E+01 -2.796147594E+02  2.801897456E+02  3.814697266E-06  0.00000E+00  9.000E+00
#rwgt            1           1   3.2417416316416474E-002           8       98364           0
</event>
<event>
      5   9999  3.79277E-02  1.15573E+02 -1.00000E+00  1.21065E-01
      21    -1     0     0   502   511  0.000000000E+00  0.000000000E+00  4.367827290E+02  4.367827290E+02  0.000000000E+00  0.00000E+00  9.000E+00
      21    -1     0     0   501   502  0.000000000E+00  0.000000000E+00 -1.739391723E+02  1.739391723E+02  0.000000000E+00  0.00000E+00  9.000E+00
      25     1     1     2     0     0  1.025426735E+02  7.099751113E+01  1.977139265E+02  2.650876143E+02  1.250000000E+02  0.00000E+00  9.000E+00
      25     1     1     2     0     0 -4.752653210E+00 -1.325954680E+02 -4.308021675E+01  1.873100396E+02  1.250000000E+02  0.00000E+00  9.000E+00
      21     1     1     2   501   511 -9.779002034E+01  6.159795691E+01  1.082098469E+02  1.583242475E+02  0.000000000E+00  0.00000E+00  9.000E+00
#rwgt            1           1   4.9755082598643405E-002           8       98581           0
</event>
<event>
      5   9999  3.79277E-02  1.36964E+02 -1.00000E+00  1.17980E-01
      21    -1     0     0   502   501  0.000000000E+00  0.000000000E+00  1.441931481E+02  1.441931481E+02  0.000000000E+00  0.00000E+00  9.000E+00
      21    -1     0     0   501   512  0.000000000E+00  0.000000000E+00 -2.625798123E+03  2.625798123E+03  0.000000000E+00  0.00000E+00  9.000E+00
      25     1     1     2     0     0  2.631773915E+02  8.652811584E+01 -7.305906819E+02  7.912883158E+02  1.250000000E+02  0.00000E+00  9.000E+00
      25     1     1     2     0     0 -2.821467202E+02  4.911563473E+01 -1.089392127E+02  3.309257762E+02  1.250000000E+02  0.00000E+00  9.000E+00
      21     1     1     2   502   512  1.896932868E+01 -1.356437506E+02 -1.642075081E+03  1.647777179E+03  2.157918644E-05  0.00000E+00  9.000E+00
#rwgt            1           1   3.7333597162533864E-002           8       98650           0
</event>
<event>
      5   9999  3.79277E-02  2.02215E+02 -1.00000E+00  1.11474E-01
      21    -1     0     0   502   501  0.000000000E+00  0.000000000E+00  2.926878859E+02  2.926878859E+02  0.000000000E+00  0.00000E+00  9.000E+00
      21    -1     0     0   501   511  0.000000000E+00  0.000000000E+00 -3.370578715E+02  3.370578715E+02  0.000000000E+00  0.00000E+00  9.000E+00
      25     1     1     2     0     0 -1.743579075E+02  4.025112479E+01  1.263598344E+02  2.522154649E+02  1.250000000E+02  0.00000E+00  9.000E+00
      25     1     1     2     0     0 -1.310294494E+01  3.557421440E+01 -9.535266645E+01  1.617230438E+02  1.250000000E+02  0.00000E+00  9.000E+00
      21     1     1     2   502   511  1.874608525E+02 -7.582533919E+01 -7.537715362E+01  2.158072486E+02  2.523185073E-06  0.00000E+00  9.000E+00
#rwgt            1           1   4.6094052235160055E-002           8       98761           0
</event>
<event>
      5   9999  3.79277E-02  1.11714E+02 -1.00000E+00  1.21702E-01
      21    -1     0     0   502   512  0.000000000E+00  0.000000000E+00  2.876546572E+02  2.876546572E+02  0.000000000E+00  0.00000E+00  9.000E+00
      21    -1     0     0   501   502  0.000000000E+00  0.000000000E+00 -6.394773124E+02  6.394773124E+02  0.000000000E+00  0.00000E+00  9.000E+00
      25     1     1     2     0     0 -1.748344532E+02  1.557603506E+02 -5.178522306E+02  5.819143455E+02  1.250000000E+02  0.00000E+00  9.000E+00
      25     1     1     2     0     0  6.748500887E+01 -1.248409465E+02  8.573356144E+01  2.076408724E+02  1.250000000E+02  0.00000E+00  9.000E+00
      21     1     1     2   501   512  1.073494443E+02 -3.091940405E+01  8.029601396E+01  1.375767516E+02  1.651812370E-06  0.00000E+00  9.000E+00
#rwgt            1           1   3.4375869120017333E-002           8       98822           0
</event>
<event>
      5   9999  3.79277E-02  4.10363E+01 -1.00000E+00  1.44155E-01
      21    -1     0     0   502   511  0.000000000E+00  0.000000000E+00  1.010017494E+03  1.010017494E+03  0.000000000E+00  0.00000E+00  9.000E+00
      21    -1     0     0   501   502  0.000000000E+00  0.000000000E+00 -3.578285224E+01  3.578285224E+01  0.000000000E+00  0.00000E+00  9.000E+00
      25     1     1     2     0     0 -3.926333313E+01  3.367017896E+01  1.668725722E+02  2.148179360E+02  1.250000000E+02  0.00000E+00  9.000E+00
      25     1     1     2     0     0  2.813891188E+01 -7.316988761E+01  5.138072573E+02  5.345732209E+02  1.250000000E+02  0.00000E+00  9.000E+00
      21     1     1     2   501   511  1.112442125E+01  3.949970864E+01  2.935548125E+02  2.964091896E+02  5.394796609E-06  0.00000E+00  9.000E+00
#rwgt            1           1   2.8749834625925480E-002           8       98899           0
</event>
<event>
      5   9999  3.79277E-02  4.03586E+01 -1.00000E+00  1.44600E-01
      21    -1     0     0   502   501  0.000000000E+00  0.000000000E+00  3.704764654E+02  3.704764654E+02  0.000000000E+00  0.00000E+00  9.000E+00
       4    -1     0     0   501     0  0.000000000E+00  0.000000000E+00 -2.900082174E+02  2.900082174E+02  0.000000000E+00  0.00000E+00  9.000E+00
      25     1     1     2     0     0  1.467632387E+02  3.891510986E+01  7.084977865E+01  2.090419220E+02  1.250000000E+02  0.00000E+00  9.000E+00
      25     1     1     2     0     0 -1.128341275E+02 -1.706025246E+01  1.970231350E+02  2.597416183E+02  1.250000000E+02  0.00000E+00  9.000E+00
       4     1     1     2   502     0 -3.392911117E+01 -2.185485740E+01 -1.874046656E+02  1.917011426E+02  2.697398305E-06  0.00000E+00  9.000E+00
#rwgt            1           1   4.0069949368149518E-002           8       99133           0
</event>
<event>
      5   9999  3.79277E-02  2.25700E+02 -1.00000E+00  1.09770E-01
       2    -1     0     0   502     0  0.000000000E+00  0.000000000E+00  2.420420568E+03  2.420420568E+03  0.000000000E+00  0.00000E+00  9.000E+00
      21    -1     0     0   501   502  0.000000000E+00  0.000000000E+00 -7.812124486E+01  7.812124486E+01  0.000000000E+00  0.00000E+00  9.000E+00
      25     1     1     2     0     0  8.926306295E+01 -2.223103933E+02  2.952165671E+02  4.002094787E+02  1.250000000E+02  0.00000E+00  9.000E+00
      25     1     1     2     0     0 -5.489060243E+01 -7.564852253E-01  2.313714936E+02  2.686472009E+02  1.250000000E+02  0.00000E+00  9.000E+00
       2     1     1     2   501     0 -3.437246052E+01  2.230668785E+02  1.815711263E+03  1.829685134E+03  2.157918644E-05  0.00000E+00  9.000E+00
#rwgt            1           1   3.7380828754414203E-002           8       99344           0
</event>
<event>
      5   9999  3.79277E-02  6.35964E+01 -1.00000E+00  1.33366E-01
      21    -1     0     0   502   501  0.000000000E+00  0.000000000E+00  2.734339135E+03  2.734339135E+03  0.000000000E+00  0.00000E+00  9.000E+00
      21    -1     0     0   511   502  0.000000000E+00  0.000000000E+00 -2.663695466E+01  2.663695466E+01  0.000000000E+00  0.00000E+00  9.000E+00
      25     1     1     2     0     0 -5.988560254E+01 -6.195043601E+01  1.965101629E+03  1.970957522E+03  1.250000000E+02  0.00000E+00  9.000E+00
      25     1     1     2     0     0  9.204248117E+01  1.168178911E+02  6.441856025E+02  6.728434651E+02  1.250000000E+02  0.00000E+00  9.000E+00
      21     1     1     2   511   501 -3.215687863E+01 -5.486745511E+01  9.841494895E+01  1.171751025E+02  3.568322551E-06  0.00000E+00  9.000E+00
#rwgt            1           1   5.9112492655758075E-002           8       99389           0
</event>
<event>
      5   9999  3.79277E-02  5.29495E+01 -1.00000E+00  1.37670E-01
      21    -1     0     0   512   501  0.000000000E+00  0.000000000E+00  4.396223073E+02  4.396223073E+02  0.000000000E+00  0.00000E+00  9.000E+00
      21    -1     0     0   501   502  0.000000000E+00  0.000000000E+00 -2.109225106E+02  2.109225106E+02  0.000000000E+00  0.00000E+00  9.000E+00
      25     1     1     2     0     0  9.379327225E+01  5.277098861E+01 -6.284275376E+01  1.765110956E+02  1.250000000E+02  0.00000E+00  9.000E+00
      25     1     1     2     0     0 -9.694707782E+01 -1.056264377E+02  1.316720982E+01  1.906673954E+02  1.250000000E+02  0.00000E+00  9.000E+00
      21     1     1     2   512   502  3.153805569E+00  5.285544910E+01  2.783753406E+02  2.833663270E+02  0.000000000E+00  0.00000E+00  9.000E+00
#rwgt            1           1   4.1991269175753958E-002           8       99676           0
</event>
<event>
      5   9999  3.79277E-02  3.17663E+01 -1.00000E+00  1.51334E-01
      21    -1     0     0   502   511  0.000000000E+00  0.000000000E+00  8.248825124E+02  8.248825124E+02  0.000000000E+00  0.00000E+00  9.000E+00
      21    -1     0     0   501   502  0.000000000E+00  0.000000000E+00 -3.720689592E+01  3.720689592E+01  0.000000000E+00  0.00000E+00  9.000E+00
      25     1     1     2     0     0 -4.241515966E+01  6.562026887E+01  5.345336468E+02  5.544874074E+02  1.250000000E+02  0.00000E+00  9.000E+00
      25     1     1     2     0     0  5.207938358E+01 -3.535969316E+01  1.811798171E+02  2.289403770E+02  1.250000000E+02  0.00000E+00  9.000E+00
      21     1     1     2   501   511 -9.664223921E+00 -3.026057571E+01  7.196215265E+01  7.866162393E+01  9.536743164E-07  0.00000E+00  9.000E+00
#rwgt            1           1   3.6986327567536101E-002           8       99744           0
</event>
<event>
      5   9999  3.79277E-02  1.59494E+01 -1.00000E+00  1.74909E-01
      21    -1     0     0   512   501  0.000000000E+00  0.000000000E+00  4.660471346E+02  4.660471346E+02  0.000000000E+00  0.00000E+00  9.000E+00
      21    -1     0     0   501   502  0.000000000E+00  0.000000000E+00 -1.785939842E+02  1.785939842E+02  0.000000000E+00  0.00000E+00  9.000E+00
      25     1     1     2     0     0  8.485713251E+01 -6.630652585E+01  2.649596706E+02  3.121312470E+02  1.250000000E+02  0.00000E+00  9.000E+00
      25     1     1     2     0     0 -9.902994825E+01  5.899120248E+01 -1.077452885E+02  2.012981367E+02  1.250000000E+02  0.00000E+00  9.000E+00
      21     1     1     2   512   502  1.417281574E+01  7.315323366E+00  1.302387683E+02  1.312117351E+02  0.000000000E+00  0.00000E+00  9.000E+00
#rwgt            1           1   3.5219037845932603E-002           8       99872           0
</event>
<event>
      5   9999  3.79277E-02  5.10496E+01 -1.00000E+00  1.38563E-01
      21    -1     0     0   511   501  0.000000000E+00  0.000000000E+00  3.070601992E+02  3.070601992E+02  0.000000000E+00  0.00000E+00  9.000E+00
      21    -1     0     0   501   502  0.000000000E+00  0.000000000E+00 -1.234120502E+02  1.234120502E+02  0.000000000E+00  0.00000E+00  9.000E+00
      25     1     1     2     0     0 -3.559651591E+01  2.035592426E+01 -2.549828630E+01  1.340023813E+02  1.250000000E+02  0.00000E+00  9.000E+00
      25     1     1     2     0     0  8.661322461E+01 -1.852408225E+01  1.235702532E+02  1.968237785E+02  1.250000000E+02  0.00000E+00  9.000E+00
      21     1     1     2   511   502 -5.101670870E+01 -1.831842009E+00  8.557618212E+01  9.964608953E+01  1.348699152E-06  0.00000E+00  9.000E+00
#rwgt            1           1   4.6623746027011151E-002           8      100084           0
</event>
<event>
      5   9999  3.79277E-02  1.92272E+01 -1.00000E+00  1.67794E-01
      21    -1     0     0   502   512  0.000000000E+00  0.000000000E+00  8.454566082E+02  8.454566082E+02  0.000000000E+00  0.00000E+00  9.000E+00
      21    -1     0     0   501   502  0.000000000E+00  0.000000000E+00 -7.086088102E+01  7.086088102E+01  0.000000000E+00  0.00000E+00  9.000E+00
      25     1     1     2     0     0  2.726465011E+01  1.530155421E+02  1.337590867E+02  2.401533063E+02  1.250000000E+02  0.00000E+00  9.000E+00
      25     1     1     2     0     0 -4.412778194E+01 -1.437787006E+02  5.991259564E+02  6.302352637E+02  1.250000000E+02  0.00000E+00  9.000E+00
      21     1     1     2   501   512  1.686313183E+01 -9.236841464E+00  4.171068409E+01  4.592891925E+01  0.000000000E+00  0.00000E+00  9.000E+00
#rwgt            1           1   2.5968488115913867E-002           8      100160           0
</event>
<event>
      5   9999  3.79277E-02  2.85894E+01 -1.00000E+00  1.54507E-01
      21    -1     0     0   502   511  0.000000000E+00  0.000000000E+00  3.209127689E+02  3.209127689E+02  0.000000000E+00  0.00000E+00  9.000E+00
      21    -1     0     0   501   502  0.000000000E+00  0.000000000E+00 -1.105268752E+02  1.105268752E+02  0.000000000E+00  0.00000E+00  9.000E+00
      25     1     1     2     0     0 -9.331358506E+01  1.791781340E+01  1.842662186E+02  2.420898852E+02  1.250000000E+02  0.00000E+00  9.000E+00
      25     1     1     2     0     0  6.940062437E+01 -3.358701903E+01 -5.181838823E+00  1.469570889E+02  1.250000000E+02  0.00000E+00  9.000E+00
      21     1     1     2   501   511  2.391296069E+01  1.566920563E+01  3.130151398E+01  4.239267002E+01  4.768371582E-07  0.00000E+00  9.000E+00
#rwgt            1           1   3.7487212464982676E-002           8      100379           0
</event>
<event>
      5   9999  3.79277E-02  3.72070E+01 -1.00000E+00  1.46817E-01
      21    -1     0     0   502   512  0.000000000E+00  0.000000000E+00  5.743698321E+02  5.743698321E+02  0.000000000E+00  0.00000E+00  9.000E+00
      21    -1     0     0   501   502  0.000000000E+00  0.000000000E+00 -9.174509544E+01  9.174509544E+01  0.000000000E+00  0.00000E+00  9.000E+00
      25     1     1     2     0     0 -8.401638121E+01  6.019000857E+01  2.313079153E+01  1.638341325E+02  1.250000000E+02  0.00000E+00  9.000E+00
      25     1     1     2     0     0  8.488384859E+01 -2.299307439E+01  2.802534320E+02  3.192192591E+02  1.250000000E+02  0.00000E+00  9.000E+00
      21     1     1     2   501   512 -8.674673747E-01 -3.719693417E+01  1.792405131E+02  1.830615360E+02  2.697398305E-06  0.00000E+00  9.000E+00
#rwgt            1           1   4.2838928140072063E-002           8      100508           0
</event>
<event>
      5   9999  3.79277E-02  1.86022E+01 -1.00000E+00  1.69008E-01
       2    -1     0     0   502     0  0.000000000E+00  0.000000000E+00  8.166898186E+02  8.166898186E+02  0.000000000E+00  0.00000E+00  9.000E+00
      21    -1     0     0   501   502  0.000000000E+00  0.000000000E+00 -8.166853880E+01  8.166853880E+01  0.000000000E+00  0.00000E+00  9.000E+00
      25     1     1     2     0     0 -4.126686783E-01 -1.448872727E+02  1.974264827E+02  2.749449184E+02  1.250000000E+02  0.00000E+00  9.000E+00
      25     1     1     2     0     0  1.819564510E+01  1.394275869E+02  1.646691496E+02  2.500241235E+02  1.250000000E+02  0.00000E+00  9.000E+00
       2     1     1     2   501     0 -1.778297642E+01  5.459685799E+00  3.729256474E+02  3.733893155E+02  0.000000000E+00  0.00000E+00  9.000E+00
#rwgt            1           1   1.7857682665620492E-002           8      100636           0
</event>
<event>
      5   9999  3.79277E-02  7.11833E+01 -1.00000E+00  1.30853E-01
      21    -1     0     0   502   511  0.000000000E+00  0.000000000E+00  4.083991793E+02  4.083991793E+02  0.000000000E+00  0.00000E+00  9.000E+00
      21    -1     0     0   501   502  0.000000000E+00  0.000000000E+00 -2.562314276E+02  2.562314276E+02  0.000000000E+00  0.00000E+00  9.000E+00
      25     1     1     2     0     0  8.893119942E+00  2.119045953E+02 -2.512803468E+01  2.474652768E+02  1.250000000E+02  0.00000E+00  9.000E+00
      25     1     1     2     0     0  6.227866809E+01 -2.106221361E+02  3.117937412E+01  2.546320288E+02  1.250000000E+02  0.00000E+00  9.000E+00
      21     1     1     2   501   511 -7.117178803E+01 -1.282459250E+00  1.461164123E+02  1.625333013E+02  3.303624740E-06  0.00000E+00  9.000E+00
#rwgt            1           1   4.0257620143323514E-002           8      100825           0
</event>
<event>
      5   9999  3.79277E-02  6.46225E+01 -1.00000E+00  1.33003E-01
      21    -1     0     0   512   501  0.000000000E+00  0.000000000E+00  1.314629658E+03  1.314629658E+03  0.000000000E+00  0.00000E+00  9.000E+00
      21    -1     0     0   501   502  0.000000000E+00  0.000000000E+00 -8.269933700E+01  8.269933700E+01  0.000000000E+00  0.00000E+00  9.000E+00
      25     1     1     2     0     0  5.876088644E+00  9.523148599E+01  8.787095314E+01  1.801384710E+02  1.250000000E+02  0.00000E+00  9.000E+00
      25     1     1     2     0     0 -6.644119886E+01 -1.177688810E+02  2.036300040E+02  2.745434770E+02  1.250000000E+02  0.00000E+00  9.000E+00
      21     1     1     2   512   502  6.056511022E+01  2.253739501E+01  9.404293634E+02  9.426470465E+02  1.078959322E-05  0.00000E+00  9.000E+00
#rwgt            1           1   2.9936094012061352E-002           8      100951           0
</event>
<event>
      5   9999  3.79277E-02  2.59572E+01 -1.00000E+00  1.57538E-01
      21    -1     0     0   502   501  0.000000000E+00  0.000000000E+00  4.375675226E+02  4.375675226E+02  0.000000000E+00  0.00000E+00  9.000E+00
      21    -1     0     0   501   511  0.000000000E+00  0.000000000E+00 -1.035018357E+02  1.035018357E+02  0.000000000E+00  0.00000E+00  9.000E+00
      25     1     1     2     0     0  1.245210144E+02 -6.540447263E+01  2.766409245E+02  3.345720089E+02  1.250000000E+02  0.00000E+00  9.000E+00
      25     1     1     2     0     0 -9.858988223E+01  6.424142894E+01  4.376158387E+01  1.771637725E+02  1.250000000E+02  0.00000E+00  9.000E+00
      21     1     1     2   502   511 -2.593113212E+01  1.163043688E+00  1.366317845E+01  2.933357682E+01  2.920019320E-07  0.00000E+00  9.000E+00
#rwgt            1           1   2.2241749968524051E-002           8      101023           0
</event>
<event>
      5   9999  3.79277E-02  5.96428E+01 -1.00000E+00  1.34842E-01
      21    -1     0     0   512   501  0.000000000E+00  0.000000000E+00  8.055097987E+01  8.055097987E+01  0.000000000E+00  0.00000E+00  9.000E+00
      21    -1     0     0   501   502  0.000000000E+00  0.000000000E+00 -1.621279480E+03  1.621279480E+03  0.000000000E+00  0.00000E+00  9.000E+00
      25     1     1     2     0     0  1.358217793E+02 -6.506470053E+01 -1.814071012E+02  2.668604642E+02  1.250000000E+02  0.00000E+00  9.000E+00
      25     1     1     2     0     0 -9.882486744E+01  1.118460824E+02 -1.361440541E+03  1.375289514E+03  1.250000000E+02  0.00000E+00  9.000E+00
      21     1     1     2   512   502 -3.699691183E+01 -4.678138183E+01  2.119141759E+00  5.968048201E+01  2.266936333E-06  0.00000E+00  9.000E+00
#rwgt            1           1   4.6397933622348696E-002           8      101137           0
</event>
<event>
      5   9999  3.79277E-02  1.65982E+01 -1.00000E+00  1.73339E-01
      21    -1     0     0   502   501  0.000000000E+00  0.000000000E+00  4.553877080E+02  4.553877080E+02  0.000000000E+00  0.00000E+00  9.000E+00
      21    -1     0     0   501   511  0.000000000E+00  0.000000000E+00 -1.464508942E+02  1.464508942E+02  0.000000000E+00  0.00000E+00  9.000E+00
      25     1     1     2     0     0 -1.644470124E+02  7.328884707E+01  3.505786867E+01  2.219642520E+02  1.250000000E+02  0.00000E+00  9.000E+00
      25     1     1     2     0     0  1.682299153E+02 -8.945026217E+01  2.810236142E+02  3.618037113E+02  1.250000000E+02  0.00000E+00  9.000E+00
      21     1     1     2   502   511 -3.782902826E+00  1.616141510E+01 -7.144669092E+00  1.807063885E+01  5.127385418E-07  0.00000E+00  9.000E+00
#rwgt            1           1  0.11990331152963830                8      101272           0
</event>
<event>
      5   9999  3.79277E-02  1.30052E+02 -1.00000E+00  1.18904E-01
      21    -1     0     0   512   501  0.000000000E+00  0.000000000E+00  1.416910164E+03  1.416910164E+03  0.000000000E+00  0.00000E+00  9.000E+00
      21    -1     0     0   501   502  0.000000000E+00  0.000000000E+00 -3.664720666E+02  3.664720666E+02  0.000000000E+00  0.00000E+00  9.000E+00
      25     1     1     2     0     0 -3.977714340E+02 -4.774845123E+02  7.172838162E+02  9.572537000E+02  1.250000000E+02  0.00000E+00  9.000E+00
      25     1     1     2     0     0  2.823168284E+02  5.373496687E+02  2.334196993E+02  6.622365243E+02  1.250000000E+02  0.00000E+00  9.000E+00
      21     1     1     2   512   502  1.154546056E+02 -5.986515644E+01  9.973458166E+01  1.638920062E+02  0.000000000E+00  0.00000E+00  9.000E+00
#rwgt            1           1   2.4764270343889623E-002           8      101457           0
</event>
<event>
      5   9999  3.79277E-02  1.05383E+01 -1.00000E+00  1.93161E-01
       2    -1     0     0   502     0  0.000000000E+00  0.000000000E+00  7.149401037E+02  7.149401037E+02  0.000000000E+00  0.00000E+00  9.000E+00
      21    -1     0     0   501   502  0.000000000E+00  0.000000000E+00 -1.521835527E+02  1.521835527E+02  0.000000000E+00  0.00000E+00  9.000E+00
      25     1     1     2     0     0 -4.556598488E+01  1.356048633E+02 -3.124573641E+01  1.925259306E+02  1.250000000E+02  0.00000E+00  9.000E+00
      25     1     1     2     0     0  5.419433872E+01 -1.295544162E+02  1.794169140E+02  2.598784373E+02  1.250000000E+02  0.00000E+00  9.000E+00
       2     1     1     2   501     0 -8.628353841E+00 -6.050447040E+00  4.145853734E+02  4.147192885E+02  0.000000000E+00  0.00000E+00  9.000E+00
#rwgt            1           1   3.7140161788635537E-002           8      101738           0
</event>
<event>
      5   9999  3.79277E-02  6.79239E+01 -1.00000E+00  1.31886E-01
      21    -1     0     0   502   501  0.000000000E+00  0.000000000E+00  3.196458319E+02  3.196458319E+02  0.000000000E+00  0.00000E+00  9.000E+00
      21    -1     0     0   511   502  0.000000000E+00  0.000000000E+00 -4.530713570E+02  4.530713570E+02  0.000000000E+00  0.00000E+00  9.000E+00
      25     1     1     2     0     0 -2.560243585E+02 -2.285700446E+02 -5.265368715E+01  3.690394941E+02  1.250000000E+02  0.00000E+00  9.000E+00
      25     1     1     2     0     0  1.892578794E+02  2.160840481E+02 -2.231089601E+01  3.140599256E+02  1.250000000E+02  0.00000E+00  9.000E+00
      21     1     1     2   511   501  6.676647906E+01  1.248599648E+01 -5.846094191E+01  8.961776924E+01  1.168007728E-06  0.00000E+00  9.000E+00
#rwgt            1           1  0.13045498158336513                8      102004           0
</event>
<event>
      5   9999  3.79277E-02  6.29669E+01 -1.00000E+00  1.33593E-01
      21    -1     0     0   502   512  0.000000000E+00  0.000000000E+00  2.830087100E+02  2.830087100E+02  0.000000000E+00  0.00000E+00  9.000E+00
      21    -1     0     0   501   502  0.000000000E+00  0.000000000E+00 -2.651001336E+02  2.651001336E+02  0.000000000E+00  0.00000E+00  9.000E+00
      25     1     1     2     0     0 -9.422335846E+01  5.500814617E+01  1.602661261E+01  1.666907008E+02  1.250000000E+02  0.00000E+00  9.000E+00
      25     1     1     2     0     0  5.544276541E+01 -5.400700650E+00 -1.583303454E+02  2.092762913E+02  1.250000000E+02  0.00000E+00  9.000E+00
      21     1     1     2   501   512  3.878059306E+01 -4.960744552E+01  1.602123092E+02  1.721418516E+02  1.907348633E-06  0.00000E+00  9.000E+00
#rwgt            1           1   5.2830418506345150E-002           8      102132           0
</event>
<event>
      5   9999  3.79277E-02  1.43795E+02 -1.00000E+00  1.17125E-01
      21    -1     0     0   502   511  0.000000000E+00  0.000000000E+00  1.948421091E+02  1.948421091E+02  0.000000000E+00  0.00000E+00  9.000E+00
      21    -1     0     0   501   502  0.000000000E+00  0.000000000E+00 -7.605685964E+02  7.605685964E+02  0.000000000E+00  0.00000E+00  9.000E+00
      25     1     1     2     0     0  1.678891087E+02 -6.590277820E+00  4.383921240E+01  2.139557458E+02  1.250000000E+02  0.00000E+00  9.000E+00
      25     1     1     2     0     0 -1.445066298E+02  1.484709377E+02 -5.159469401E+02  5.698701874E+02  1.250000000E+02  0.00000E+00  9.000E+00
      21     1     1     2   501   511 -2.338247900E+01 -1.418806599E+02 -9.361875956E+01  1.715847724E+02  3.303624740E-06  0.00000E+00  9.000E+00
#rwgt            1           1   3.1486996858399730E-002           8      102381           0
</event>
<event>
      5   9999  3.79277E-02  7.54158E+01 -1.00000E+00  1.29602E-01
      21    -1     0     0   502   512  0.000000000E+00  0.000000000E+00  5.869821868E+02  5.869821868E+02  0.000000000E+00  0.00000E+00  9.000E+00
      21    -1     0     0   501   502  0.000000000E+00  0.000000000E+00 -3.341887625E+02  3.341887625E+02  0.000000000E+00  0.00000E+00  9.000E+00
      25     1     1     2     0     0  3.044901846E+02 -7.257635802E+01  3.548925240E+00  3.370744652E+02  1.250000000E+02  0.00000E+00  9.000E+00
      25     1     1     2     0     0 -2.896486616E+02  1.465173392E+02  2.639779657E+01  3.488345188E+02  1.250000000E+02  0.00000E+00  9.000E+00
      21     1     1     2   501   512 -1.484152299E+01 -7.394098119E+01  2.228467025E+02  2.352619653E+02  2.697398305E-06  0.00000E+00  9.000E+00
#rwgt            1           1   7.7759739077881834E-002           8      102451           0
</event>
<event>
      5   9999  3.79277E-02  1.87180E+01 -1.00000E+00  1.68778E-01
      21    -1     0     0   511   501  0.000000000E+00  0.000000000E+00  6.443455552E+01  6.443455552E+01  0.000000000E+00  0.00000E+00  9.000E+00
      21    -1     0     0   501   502  0.000000000E+00  0.000000000E+00 -1.222622297E+03  1.222622297E+03  0.000000000E+00  0.00000E+00  9.000E+00
      25     1     1     2     0     0  1.131624520E+02 -8.469245027E+01 -2.645775683E+02  3.249689852E+02  1.250000000E+02  0.00000E+00  9.000E+00
      25     1     1     2     0     0 -1.140182335E+02  6.599403796E+01 -9.154700811E+02  9.333090807E+02  1.250000000E+02  0.00000E+00  9.000E+00
      21     1     1     2   511   502  8.557814118E-01  1.869841230E+01  2.185990797E+01  2.877878665E+01  1.390207266E-06  0.00000E+00  9.000E+00
#rwgt            1           1   4.5166388150356167E-002           8      102527           0
</event>
<event>
      5   9999  3.79277E-02  4.64561E+01 -1.00000E+00  1.40922E-01
      21    -1     0     0   512   501  0.000000000E+00  0.000000000E+00  2.074514814E+02  2.074514814E+02  0.000000000E+00  0.00000E+00  9.000E+00
      21    -1     0     0   501   502  0.000000000E+00  0.000000000E+00 -3.120030820E+02  3.120030820E+02  0.000000000E+00  0.00000E+00  9.000E+00
      25     1     1     2     0     0 -2.625563964E+01  2.103408862E+02 -5.352612177E+01  2.518386244E+02  1.250000000E+02  0.00000E+00  9.000E+00
      25     1     1     2     0     0 -4.849779984E+00 -1.758354736E+02 -4.796291033E+01  2.210589851E+02  1.250000000E+02  0.00000E+00  9.000E+00
      21     1     1     2   512   502  3.110541963E+01 -3.450541264E+01 -3.062568419E+00  4.655695390E+01  1.837138534E-07  0.00000E+00  9.000E+00
#rwgt            1           1   3.7710698213235486E-002           8      102743           0
</event>
<event>
      5   9999  3.79277E-02  1.17163E+02 -1.00000E+00  1.20811E-01
      21    -1     0     0   511   501  0.000000000E+00  0.000000000E+00  7.995870669E+02  7.995870669E+02  0.000000000E+00  0.00000E+00  9.000E+00
      21    -1     0     0   501   502  0.000000000E+00  0.000000000E+00 -1.994022784E+02  1.994022784E+02  0.000000000E+00  0.00000E+00  9.000E+00
      25     1     1     2     0     0  2.057499100E+02  1.655916306E+02  3.979926352E+02  4.937375328E+02  1.250000000E+02  0.00000E+00  9.000E+00
      25     1     1     2     0     0 -1.283102545E+02 -7.766912307E+01 -7.119105084E+01  2.078200659E+02  1.250000000E+02  0.00000E+00  9.000E+00
      21     1     1     2   511   502 -7.743965554E+01 -8.792250756E+01  2.733832042E+02  2.974317466E+02  3.814697266E-06  0.00000E+00  9.000E+00
#rwgt            2          11   1.5106648845999873E-003           8      102904           0
</event>
<event>
      5   9999  3.79277E-02  7.75473E+01 -1.00000E+00  1.29007E-01
      21    -1     0     0   502   501  0.000000000E+00  0.000000000E+00  3.934366023E+02  3.934366023E+02  0.000000000E+00  0.00000E+00  9.000E+00
      21    -1     0     0   512   502  0.000000000E+00  0.000000000E+00 -4.769074371E+02  4.769074371E+02  0.000000000E+00  0.00000E+00  9.000E+00
      25     1     1     2     0     0  1.578977593E+02 -1.722201708E+02 -3.086021073E+02  4.067576063E+02  1.250000000E+02  0.00000E+00  9.000E+00
      25     1     1     2     0     0 -8.708213693E+01  1.406175531E+02  2.940853261E+02  3.598163057E+02  1.250000000E+02  0.00000E+00  9.000E+00
      21     1     1     2   512   501 -7.081562241E+01  3.160261775E+01 -6.895405360E+01  1.037701274E+02  1.348699152E-06  0.00000E+00  9.000E+00
#rwgt            1           1   1.3796911642790465E-002           8      102924           0
</event>
<event>
      5   9999  3.79277E-02  3.63684E+01 -1.00000E+00  1.47451E-01
      21    -1     0     0   502   501  0.000000000E+00  0.000000000E+00  1.654054717E+02  1.654054717E+02  0.000000000E+00  0.00000E+00  9.000E+00
      21    -1     0     0   511   502  0.000000000E+00  0.000000000E+00 -3.503904860E+02  3.503904860E+02  0.000000000E+00  0.00000E+00  9.000E+00
      25     1     1     2     0     0 -1.263538139E+02 -4.726644092E+01 -3.071661024E+01  1.864615587E+02  1.250000000E+02  0.00000E+00  9.000E+00
      25     1     1     2     0     0  1.042658569E+02  7.615904435E+01 -9.386305016E+00  1.799574163E+02  1.250000000E+02  0.00000E+00  9.000E+00
      21     1     1     2   511   501  2.208795700E+01 -2.889260343E+01 -1.448820990E+02  1.493769828E+02  1.907348633E-06  0.00000E+00  9.000E+00
#rwgt            1           1   2.4789936145432991E-002           8      103095           0
</event>
<event>
      5   9999  3.79277E-02  7.44936E+01 -1.00000E+00  1.29867E-01
      21    -1     0     0   502   512  0.000000000E+00  0.000000000E+00  7.345978959E+02  7.345978959E+02  0.000000000E+00  0.00000E+00  9.000E+00
      21    -1     0     0   501   502  0.000000000E+00  0.000000000E+00 -2.462114633E+02  2.462114633E+02  0.000000000E+00  0.00000E+00  9.000E+00
      25     1     1     2     0     0  2.452208333E+02 -1.942373338E+02  1.425153970E+02  3.657827734E+02  1.250000000E+02  0.00000E+00  9.000E+00
      25     1     1     2     0     0 -1.733637327E+02  1.745942889E+02  1.555498754E+01  2.764147376E+02  1.250000000E+02  0.00000E+00  9.000E+00
      21     1     1     2   501   512 -7.185710063E+01  1.964304491E+01  3.303160481E+02  3.386118482E+02  5.394796609E-06  0.00000E+00  9.000E+00
#rwgt            1           1   3.4349819002525643E-002           8      103225           0
</event>
<event>
      5   9999  3.79277E-02  2.23992E+01 -1.00000E+00  1.62409E-01
      21    -1     0     0   502   511  0.000000000E+00  0.000000000E+00  3.547944370E+02  3.547944370E+02  0.000000000E+00  0.00000E+00  9.000E+00
      21    -1     0     0   501   502  0.000000000E+00  0.000000000E+00 -1.544592543E+02  1.544592543E+02  0.000000000E+00  0.00000E+00  9.000E+00
      25     1     1     2     0     0  2.145790799E+01  1.162959932E+02 -5.656484723E+01  1.811347062E+02  1.250000000E+02  0.00000E+00  9.000E+00
      25     1     1     2     0     0 -1.597256788E+00 -1.266536070E+02  2.448377124E+02  3.026783653E+02  1.250000000E+02  0.00000E+00  9.000E+00
      21     1     1     2   501   511 -1.986065120E+01  1.035761386E+01  1.206231749E+01  2.544061977E+01  4.129530925E-07  0.00000E+00  9.000E+00
#rwgt            1           1   4.0154837784408481E-002           8      103303           0
</event>
<event>
      5   9999  3.79277E-02  1.28042E+01 -1.00000E+00  1.84114E-01
      21    -1     0     0   502   501  0.000000000E+00  0.000000000E+00  1.335943401E+03  1.335943401E+03  0.000000000E+00  0.00000E+00  9.000E+00
      -3    -1     0     0     0   502  0.000000000E+00  0.000000000E+00 -3.181525176E+01  3.181525176E+01  0.000000000E+00  0.00000E+00  9.000E+00
      25     1     1     2     0     0  1.509611137E+02 -3.799744715E+00  7.056060845E+02  7.323309650E+02  1.250000000E+02  0.00000E+00  9.000E+00
      25     1     1     2     0     0 -1.382605156E+02  2.174376088E+00  5.927767957E+02  6.213936173E+02  1.250000000E+02  0.00000E+00  9.000E+00
      -3     1     1     2     0   501 -1.270059810E+01  1.625368627E+00  5.745269017E+00  1.403407038E+01  3.674277069E-07  0.00000E+00  9.000E+00
#rwgt            1           1   3.8586930819150024E-002           8      103469           0
</event>
<event>
      5   9999  3.79277E-02  6.38242E+01 -1.00000E+00  1.33285E-01
       2    -1     0     0   502     0  0.000000000E+00  0.000000000E+00  1.746264652E+03  1.746264652E+03  0.000000000E+00  0.00000E+00  9.000E+00
      21    -1     0     0   501   502  0.000000000E+00  0.000000000E+00 -2.368076043E+02  2.368076043E+02  0.000000000E+00  0.00000E+00  9.000E+00
      25     1     1     2     0     0  2.443167027E+01  1.842088851E+02  1.956889579E+02  2.974037460E+02  1.250000000E+02  0.00000E+00  9.000E+00
      25     1     1     2     0     0 -7.869632442E+01 -1.506101074E+02 -1.251844827E+02  2.453011835E+02  1.250000000E+02  0.00000E+00  9.000E+00
       2     1     1     2   501     0  5.426465415E+01 -3.359877768E+01  1.438952572E+03  1.440367327E+03  2.157918644E-05  0.00000E+00  9.000E+00
#rwgt            1           1   3.1592308585256162E-002           8      103696           0
</event>
<event>
      5   9999  3.79277E-02  1.14479E+01 -1.00000E+00  1.89205E-01
      21    -1     0     0   502   501  0.000000000E+00  0.000000000E+00  1.060633456E+02  1.060633456E+02  0.000000000E+00  0.00000E+00  9.000E+00
      21    -1     0     0   501   511  0.000000000E+00  0.000000000E+00 -4.527830562E+02  4.527830562E+02  0.000000000E+00  0.00000E+00  9.000E+00
      25     1     1     2     0     0 -1.067351674E+02 -5.054622907E+01 -9.280635060E+00  1.722162809E+02  1.250000000E+02  0.00000E+00  9.000E+00
      25     1     1     2     0     0  1.169911868E+02  4.546020120E+01 -3.131894120E+02  3.598140846E+02  1.250000000E+02  0.00000E+00  9.000E+00
      21     1     1     2   502   511 -1.025601945E+01  5.086027878E+00 -2.424966360E+01  2.681603624E+01  3.371747881E-07  0.00000E+00  9.000E+00
#rwgt            1           1   4.3110898822875540E-002           8      103814           0
</event>
<event>
      5   9999  3.79277E-02  5.68258E+01 -1.00000E+00  1.35977E-01
      21    -1     0     0   502   501  0.000000000E+00  0.000000000E+00  7.849461023E+02  7.849461023E+02  0.000000000E+00  0.00000E+00  9.000E+00
      21    -1     0     0   512   502  0.000000000E+00  0.000000000E+00 -1.917584833E+02  1.917584833E+02  0.000000000E+00  0.00000E+00  9.000E+00
      25     1     1     2     0     0  1.121593147E+02  3.493789603E+01  1.352256843E+02  2.184292887E+02  1.250000000E+02  0.00000E+00  9.000E+00
      25     1     1     2     0     0 -1.389385734E+02  1.518235331E+01  5.875662268E+02  6.167604899E+02  1.250000000E+02  0.00000E+00  9.000E+00
      21     1     1     2   512   501  2.677925863E+01 -5.012024933E+01 -1.296042921E+02  1.415148070E+02  2.697398305E-06  0.00000E+00  9.000E+00
#rwgt            1           1   3.4836863431619410E-002           8      104129           0
</event>
<event>
      5   9999  3.79277E-02  1.68299E+02 -1.00000E+00  1.14446E-01
      21    -1     0     0   502   501  0.000000000E+00  0.000000000E+00  8.542502240E+02  8.542502240E+02  0.000000000E+00  0.00000E+00  9.000E+00
      -1    -1     0     0     0   502  0.000000000E+00  0.000000000E+00 -1.035268740E+03  1.035268740E+03  0.000000000E+00  0.00000E+00  9.000E+00
      25     1     1     2     0     0 -9.331639966E+01  7.764286262E+01 -2.359116277E+02  2.932842659E+02  1.250000000E+02  0.00000E+00  9.000E+00
      25     1     1     2     0     0  2.492051548E+02 -1.421347159E+01  7.922085981E+02  8.399551743E+02  1.250000000E+02  0.00000E+00  9.000E+00
      -1     1     1     2     0   501 -1.558887551E+02 -6.342939104E+01 -7.373154869E+02  7.562795243E+02  1.078959322E-05  0.00000E+00  9.000E+00
#rwgt            1           1   8.0679920116789067E-002           8      104232           0
</event>
<event>
      5   9999  3.79277E-02  5.35280E+01 -1.00000E+00  1.37407E-01
      21    -1     0     0   502   511  0.000000000E+00  0.000000000E+00  1.730023472E+02  1.730023472E+02  0.000000000E+00  0.00000E+00  9.000E+00
      21    -1     0     0   501   502  0.000000000E+00  0.000000000E+00 -2.794999040E+02  2.794999040E+02  0.000000000E+00  0.00000E+00  9.000E+00
      25     1     1     2     0     0  5.632731487E+01  6.366156344E+01 -1.506487628E+02  2.134141766E+02  1.250000000E+02  0.00000E+00  9.000E+00
      25     1     1     2     0     0 -4.384971952E+01 -1.157149179E+02  5.536308328E+01  1.843985117E+02  1.250000000E+02  0.00000E+00  9.000E+00
      21     1     1     2   501   511 -1.247759535E+01  5.205335442E+01 -1.121187725E+01  5.468956284E+01  1.685873940E-07  0.00000E+00  9.000E+00
#rwgt            1           1   4.1087374307706648E-002           8      104293           0
</event>
<event>
      5   9999  3.79277E-02  3.37843E+01 -1.00000E+00  1.49541E-01
      21    -1     0     0   502   501  0.000000000E+00  0.000000000E+00  2.797091469E+02  2.797091469E+02  0.000000000E+00  0.00000E+00  9.000E+00
      21    -1     0     0   501   512  0.000000000E+00  0.000000000E+00 -3.641332613E+02  3.641332613E+02  0.000000000E+00  0.00000E+00  9.000E+00
      25     1     1     2     0     0  1.403465924E+02 -9.500664177E+00 -1.257866445E+02  2.263508528E+02  1.250000000E+02  0.00000E+00  9.000E+00
      25     1     1     2     0     0 -1.175108345E+02  3.439861765E+01  1.939459312E+02  2.612127205E+02  1.250000000E+02  0.00000E+00  9.000E+00
      21     1     1     2   502   512 -2.283575789E+01 -2.489795348E+01 -1.525834011E+02  1.562788348E+02  2.697398305E-06  0.00000E+00  9.000E+00
#rwgt            1           1   5.0739904667721519E-002           8      104463           0
</event>
<event>
      5   9999  3.79277E-02  1.04259E+02 -1.00000E+00  1.23019E-01
      21    -1     0     0   502   501  0.000000000E+00  0.000000000E+00  2.146663905E+02  2.146663905E+02  0.000000000E+00  0.00000E+00  9.000E+00
      21    -1     0     0   501   511  0.000000000E+00  0.000000000E+00 -3.967125151E+02  3.967125151E+02  0.000000000E+00  0.00000E+00  9.000E+00
      25     1     1     2     0     0 -4.365159848E+01 -1.211373786E+02  5.940711727E+01  1.890342089E+02  1.250000000E+02  0.00000E+00  9.000E+00
      25     1     1     2     0     0  1.440914090E+02  1.490970535E+02 -1.630309687E+02  2.918841590E+02  1.250000000E+02  0.00000E+00  9.000E+00
      21     1     1     2   502   511 -1.004398105E+02 -2.795967489E+01 -7.842227320E+01  1.304605377E+02  9.536743164E-07  0.00000E+00  9.000E+00
#rwgt            1           1   3.0761527057742984E-002           8      104578           0
</event>
<event>
      5   9999  3.79277E-02  8.52124E+00 -1.00000E+00  2.04150E-01
      21    -1     0     0   502   501  0.000000000E+00  0.000000000E+00  5.897658865E+02  5.897658865E+02  0.000000000E+00  0.00000E+00  9.000E+00
      21    -1     0     0   501   512  0.000000000E+00  0.000000000E+00 -1.631788623E+02  1.631788623E+02  0.000000000E+00  0.00000E+00  9.000E+00
      25     1     1     2     0     0 -9.803243499E+01 -1.730774145E+02  3.620025633E+02  4.315518573E+02  1.250000000E+02  0.00000E+00  9.000E+00
      25     1     1     2     0     0  1.063665381E+02  1.713013837E+02  1.196270396E+02  2.656946238E+02  1.250000000E+02  0.00000E+00  9.000E+00
      21     1     1     2   502   512 -8.334103102E+00  1.776030817E+00 -5.504257867E+01  5.569826771E+01  9.536743164E-07  0.00000E+00  9.000E+00
#rwgt            1           1   2.4526230874258616E-002           8      104687           0
</event>
<event>
      5   9999  3.79277E-02  7.85143E+00 -1.00000E+00  2.08741E-01
      21    -1     0     0   502   501  0.000000000E+00  0.000000000E+00  1.484066996E+02  1.484066996E+02  0.000000000E+00  0.00000E+00  9.000E+00
      21    -1     0     0   501   511  0.000000000E+00  0.000000000E+00 -4.788808769E+02  4.788808769E+02  0.000000000E+00  0.00000E+00  9.000E+00
      25     1     1     2     0     0 -1.537525730E+02  4.850763140E+00 -1.026078912E+02  2.231966911E+02  1.250000000E+02  0.00000E+00  9.000E+00
      25     1     1     2     0     0  1.468096305E+02 -8.516901772E+00 -1.773974244E+01  1.938177073E+02  1.250000000E+02  0.00000E+00  9.000E+00
      21     1     1     2   502   511  6.942942527E+00  3.666138632E+00 -2.101265437E+02  2.102731780E+02  3.814697266E-06  0.00000E+00  9.000E+00
#rwgt            1           1   5.4879337988138148E-002           8      105008           0
</event>
<event>
      5   9999  3.79277E-02  2.85745E+01 -1.00000E+00  1.54523E-01
      21    -1     0     0   502   512  0.000000000E+00  0.000000000E+00  4.157391176E+02  4.157391176E+02  0.000000000E+00  0.00000E+00  9.000E+00
      21    -1     0     0   501   502  0.000000000E+00  0.000000000E+00 -9.977849648E+02  9.977849648E+02  0.000000000E+00  0.00000E+00  9.000E+00
      25     1     1     2     0     0 -1.981624305E+02  6.972891872E+01 -4.464458196E+02  5.089885468E+02  1.250000000E+02  0.00000E+00  9.000E+00
      25     1     1     2     0     0  1.776793998E+02 -8.965249157E+01 -4.929176248E+02  5.460772136E+02  1.250000000E+02  0.00000E+00  9.000E+00
      21     1     1     2   501   512  2.048303070E+01  1.992357285E+01  3.573175972E+02  3.584583219E+02  7.629394531E-06  0.00000E+00  9.000E+00
#rwgt            1           1   3.5176138620488122E-002           8      105373           0
</event>
<event>
      5   9999  3.79277E-02  2.39681E+01 -1.00000E+00  1.60134E-01
      21    -1     0     0   502   501  0.000000000E+00  0.000000000E+00  4.744120407E+01  4.744120407E+01  0.000000000E+00  0.00000E+00  9.000E+00
      21    -1     0     0   501   511  0.000000000E+00  0.000000000E+00 -1.770495467E+03  1.770495467E+03  0.000000000E+00  0.00000E+00  9.000E+00
      25     1     1     2     0     0  5.403004073E+01 -1.243341715E+02 -5.019751611E+02  5.347731237E+02  1.250000000E+02  0.00000E+00  9.000E+00
      25     1     1     2     0     0 -5.112293190E+01  1.481253095E+02 -2.943247550E+02  3.560993161E+02  1.250000000E+02  0.00000E+00  9.000E+00
      21     1     1     2   502   511 -2.907108836E+00 -2.379113805E+01 -9.267543464E+02  9.270642308E+02  1.078959322E-05  0.00000E+00  9.000E+00
#rwgt            1           1   2.6182044299394466E-002           8      105457           0
</event>
<event>
      5   9999  3.79277E-02  8.06047E+00 -1.00000E+00  2.07244E-01
      21    -1     0     0   502   512  0.000000000E+00  0.000000000E+00  1.773077353E+03  1.773077353E+03  0.000000000E+00  0.00000E+00  9.000E+00
      21    -1     0     0   501   502  0.000000000E+00  0.000000000E+00 -4.158035925E+01  4.158035925E+01  0.000000000E+00  0.00000E+00  9.000E+00
      25     1     1     2     0     0  1.534128709E+02 -5.370819353E+01  2.889721812E+02  3.543303551E+02  1.250000000E+02  0.00000E+00  9.000E+00
      25     1     1     2     0     0 -1.545584832E+02  6.168683691E+01  1.217766707E+03  1.235424762E+03  1.250000000E+02  0.00000E+00  9.000E+00
      21     1     1     2   501   512  1.145612263E+00 -7.978643377E+00  2.247581052E+02  2.249025946E+02  3.814697266E-06  0.00000E+00  9.000E+00
#rwgt            1           1   4.3384249739114783E-002           8      105713           0
</event>
<event>
      5   9999 -3.79277E-02  2.55904E+01 -1.00000E+00  1.57995E-01
      21    -1     0     0   502   501  0.000000000E+00  0.000000000E+00  2.436398262E+02  2.436398262E+02  0.000000000E+00  0.00000E+00  9.000E+00
      21    -1     0     0   511   502  0.000000000E+00  0.000000000E+00 -5.649719338E+02  5.649719338E+02  0.000000000E+00  0.00000E+00  9.000E+00
      25     1     1     2     0     0 -5.947080360E+01 -1.620311022E+02  3.434207024E+01  2.158592883E+02  1.250000000E+02  0.00000E+00  9.000E+00
      25     1     1     2     0     0  3.620345507E+01  1.513774168E+02  3.377474375E+01  2.024636900E+02  1.250000000E+02  0.00000E+00  9.000E+00
      21     1     1     2   511   501  2.326734854E+01  1.065368542E+01 -3.894489217E+02  3.902887817E+02  5.394796609E-06  0.00000E+00  9.000E+00
#rwgt            1           1  -1.5701227949866871E-002           8      106171           0
</event>
<event>
      5   9999  3.79277E-02  8.86411E+00 -1.00000E+00  2.02012E-01
      21    -1     0     0   512   501  0.000000000E+00  0.000000000E+00  5.365747380E+01  5.365747380E+01  0.000000000E+00  0.00000E+00  9.000E+00
      21    -1     0     0   501   502  0.000000000E+00  0.000000000E+00 -7.257182448E+02  7.257182448E+02  0.000000000E+00  0.00000E+00  9.000E+00
      25     1     1     2     0     0 -1.048687096E+02 -5.361755661E+01 -1.574298366E+02  2.329837807E+02  1.250000000E+02  0.00000E+00  9.000E+00
      25     1     1     2     0     0  9.640846838E+01  5.097243044E+01 -5.101836759E+02  5.364747567E+02  1.250000000E+02  0.00000E+00  9.000E+00
      21     1     1     2   512   502  8.460241254E+00  2.645126176E+00 -4.447258609E+00  9.917181238E+00  0.000000000E+00  0.00000E+00  9.000E+00
#rwgt            1           1  0.12794647847648055                8      106321           0
</event>
<event>
      5   9999  3.79277E-02  7.46942E+01 -1.00000E+00  1.29809E-01
      21    -1     0     0   502   501  0.000000000E+00  0.000000000E+00  3.903672143E+02  3.903672143E+02  0.000000000E+00  0.00000E+00  9.000E+00
      21    -1     0     0   511   502  0.000000000E+00  0.000000000E+00 -1.971057803E+02  1.971057803E+02  0.000000000E+00  0.00000E+00  9.000E+00
      25     1     1     2     0     0  1.404930320E+02  1.015987481E+02  2.463772011E+02  3.261706959E+02  1.250000000E+02  0.00000E+00  9.000E+00
      25     1     1     2     0     0 -1.265743637E+02 -2.821278014E+01 -4.815844066E+01  1.864437339E+02  1.250000000E+02  0.00000E+00  9.000E+00
      21     1     1     2   511   501 -1.391866829E+01 -7.338596801E+01 -4.957326327E+00  7.485856472E+01  1.606010626E-06  0.00000E+00  9.000E+00
#rwgt            1           1   3.3068087570460827E-002           8      106515           0
</event>
<event>
      5   9999  3.79277E-02  3.57316E+01 -1.00000E+00  1.47947E-01
      21    -1     0     0   502   512  0.000000000E+00  0.000000000E+00  2.980663746E+02  2.980663746E+02  0.000000000E+00  0.00000E+00  9.000E+00
      21    -1     0     0   501   502  0.000000000E+00  0.000000000E+00 -2.871901764E+02  2.871901764E+02  0.000000000E+00  0.00000E+00  9.000E+00
      25     1     1     2     0     0  1.588584169E+02  2.289022609E+01  1.477230720E+02  2.514101531E+02  1.250000000E+02  0.00000E+00  9.000E+00
      25     1     1     2     0     0 -1.945881034E+02 -2.252173153E+01 -1.677578906E+02  2.865998399E+02  1.250000000E+02  0.00000E+00  9.000E+00
      21     1     1     2   501   512  3.572968655E+01 -3.684945579E-01  3.091101671E+01  4.724655800E+01  0.000000000E+00  0.00000E+00  9.000E+00
#rwgt            2          11   2.2900428145870119E-003           8      106640           0
</event>
<event>
      5   9999  3.79277E-02  7.47162E+01 -1.00000E+00  1.29802E-01
      21    -1     0     0   511   501  0.000000000E+00  0.000000000E+00  1.963763894E+02  1.963763894E+02  0.000000000E+00  0.00000E+00  9.000E+00
      21    -1     0     0   501   502  0.000000000E+00  0.000000000E+00 -8.035659148E+02  8.035659148E+02  0.000000000E+00  0.00000E+00  9.000E+00
      25     1     1     2     0     0 -1.540265720E+02 -1.696653269E+02 -5.717674303E+02  6.285328173E+02  1.250000000E+02  0.00000E+00  9.000E+00
      25     1     1     2     0     0  1.157211571E+02  1.055154210E+02 -1.388760161E+02  2.437958944E+02  1.250000000E+02  0.00000E+00  9.000E+00
      21     1     1     2   511   502  3.830541486E+01  6.414990591E+01  1.034539210E+02  1.276135926E+02  2.336015456E-06  0.00000E+00  9.000E+00
#rwgt            1           1   3.8563900081175884E-002           8      106795           0
</event>
<event>
      5   9999  3.79277E-02  7.18919E+01 -1.00000E+00  1.30637E-01
      21    -1     0     0   502   501  0.000000000E+00  0.000000000E+00  6.215165800E+02  6.215165800E+02  0.000000000E+00  0.00000E+00  9.000E+00
      21    -1     0     0   501   512  0.000000000E+00  0.000000000E+00 -1.164145133E+02  1.164145133E+02  0.000000000E+00  0.00000E+00  9.000E+00
      25     1     1     2     0     0  5.896064048E+01 -1.822222267E+02  2.697622528E+02  3.536636397E+02  1.250000000E+02  0.00000E+00  9.000E+00
      25     1     1     2     0     0 -1.136014016E+02  1.355014718E+02  2.238774164E+02  3.114675343E+02  1.250000000E+02  0.00000E+00  9.000E+00
      21     1     1     2   502   512  5.464076111E+01  4.672075487E+01  1.146239746E+01  7.279991941E+01  5.331201500E-07  0.00000E+00  9.000E+00
#rwgt            1           1   3.5140539824361890E-002           8      106912           0
</event>
<event>
      5   9999 -3.79277E-02  2.08363E+01 -1.00000E+00  1.64914E-01
      21    -1     0     0   502   501  0.000000000E+00  0.000000000E+00  3.751926760E+02  3.751926760E+02  0.000000000E+00  0.00000E+00  9.000E+00
      21    -1     0     0   511   502  0.000000000E+00  0.000000000E+00 -2.825414377E+02  2.825414377E+02  0.000000000E+00  0.00000E+00  9.000E+00
      25     1     1     2     0     0  2.606037390E+02  9.422644654E+01  1.081408807E+02  3.226645039E+02  1.250000000E+02  0.00000E+00  9.000E+00
      25     1     1     2     0     0 -2.447322376E+02 -1.077263702E+02  1.790249930E+01  2.957098890E+02  1.250000000E+02  0.00000E+00  9.000E+00
      21     1     1     2   511   501 -1.587150138E+01  1.349992370E+01 -3.339214175E+01  3.935972087E+01  6.743495762E-07  0.00000E+00  9.000E+00
#rwgt            1           1  -1.9737269529624308E-002           8      107099           0
</event>
<event>
      5   9999 -3.79277E-02  5.27922E+01 -1.00000E+00  1.37742E-01
      21    -1     0     0   502   501  0.000000000E+00  0.000000000E+00  7.704580368E+01  7.704580368E+01  0.000000000E+00  0.00000E+00  9.000E+00
      21    -1     0     0   512   502  0.000000000E+00  0.000000000E+00 -1.073522877E+03  1.073522877E+03  0.000000000E+00  0.00000E+00  9.000E+00
      25     1     1     2     0     0 -1.630628361E+02 -3.271691759E+00 -2.839255807E+02  3.504838482E+02  1.250000000E+02  0.00000E+00  9.000E+00
      25     1     1     2     0     0  1.639454739E+02  5.605654663E+01 -2.272120388E+02  3.118826148E+02  1.250000000E+02  0.00000E+00  9.000E+00
      21     1     1     2   512   501 -8.826377898E-01 -5.278485487E+01 -4.853394534E+02  4.882022173E+02  5.394796609E-06  0.00000E+00  9.000E+00
#rwgt            1           1 -0.30620809743625743                8      107380           0
</event>
<event>
      5   9999  3.79277E-02  8.40077E+01 -1.00000E+00  1.27330E-01
      21    -1     0     0   502   501  0.000000000E+00  0.000000000E+00  1.539494552E+02  1.539494552E+02  0.000000000E+00  0.00000E+00  9.000E+00
      21    -1     0     0   511   502  0.000000000E+00  0.000000000E+00 -3.318694990E+02  3.318694990E+02  0.000000000E+00  0.00000E+00  9.000E+00
      25     1     1     2     0     0 -1.373555036E+01  1.011080305E+02  5.014428991E+01  1.689702607E+02  1.250000000E+02  0.00000E+00  9.000E+00
      25     1     1     2     0     0 -2.327935931E+01 -2.569453637E+01 -1.736716325E+02  2.167694021E+02  1.250000000E+02  0.00000E+00  9.000E+00
      21     1     1     2   511   501  3.701490967E+01 -7.541349412E+01 -5.439270121E+01  1.000792915E+02  2.236564522E-06  0.00000E+00  9.000E+00
#rwgt            1           1   5.0975573799601499E-002           8      107497           0
</event>
<event>
      5   9999  3.79277E-02  8.40125E+01 -1.00000E+00  1.27329E-01
      21    -1     0     0   502   501  0.000000000E+00  0.000000000E+00  1.560208717E+03  1.560208717E+03  0.000000000E+00  0.00000E+00  9.000E+00
      21    -1     0     0   501   512  0.000000000E+00  0.000000000E+00 -7.576513312E+01  7.576513312E+01  0.000000000E+00  0.00000E+00  9.000E+00
      25     1     1     2     0     0  4.826209344E+01  2.035416871E+02  6.268144029E+02  6.725174672E+02  1.250000000E+02  0.00000E+00  9.000E+00
      25     1     1     2     0     0 -6.262355109E+01 -1.207657695E+02  8.597915359E+02  8.794160366E+02  1.250000000E+02  0.00000E+00  9.000E+00
      21     1     1     2   502   512  1.436145766E+01 -8.277591752E+01 -2.162355142E+00  8.404034607E+01  3.292988054E-06  0.00000E+00  9.000E+00
#rwgt            1           1   4.2937141772354373E-002           8      107585           0
</event>
<event>
      5   9999  3.79277E-02  2.42326E+01 -1.00000E+00  1.59772E-01
      21    -1     0     0   511   501  0.000000000E+00  0.000000000E+00  9.690839478E+01  9.690839478E+01  0.000000000E+00  0.00000E+00  9.000E+00
      21    -1     0     0   501   502  0.000000000E+00  0.000000000E+00 -4.359811470E+02  4.359811470E+02  0.000000000E+00  0.00000E+00  9.000E+00
      25     1     1     2     0     0 -1.469450278E+02  1.416165142E+00 -1.511583592E+02  2.450891599E+02  1.250000000E+02  0.00000E+00  9.000E+00
      25     1     1     2     0     0  1.309960671E+02 -1.966031915E+01 -1.903477270E+02  2.634459241E+02  1.250000000E+02  0.00000E+00  9.000E+00
      21     1     1     2   511   502  1.594896067E+01  1.824415401E+01  2.433334024E+00  2.435445783E+01  2.980232239E-08  0.00000E+00  9.000E+00
#rwgt            1           1   5.6993709845746976E-002           8      107712           0
</event>
<event>
      5   9999  3.79277E-02  1.08484E+02 -1.00000E+00  1.22258E-01
      21    -1     0     0   502   512  0.000000000E+00  0.000000000E+00  6.829353060E+02  6.829353060E+02  0.000000000E+00  0.00000E+00  9.000E+00
      21    -1     0     0   501   502  0.000000000E+00  0.000000000E+00 -1.485038197E+02  1.485038197E+02  0.000000000E+00  0.00000E+00  9.000E+00
      25     1     1     2     0     0  1.639113404E+02 -1.150769157E+02  1.895064312E+01  2.368411934E+02  1.250000000E+02  0.00000E+00  9.000E+00
      25     1     1     2     0     0 -5.617298278E+01  1.277785984E+02  3.095979753E+02  3.618821362E+02  1.250000000E+02  0.00000E+00  9.000E+00
      21     1     1     2   501   512 -1.077383576E+02 -1.270168276E+01  2.058828678E+02  2.327157960E+02  3.814697266E-06  0.00000E+00  9.000E+00
#rwgt            2          11   1.8814919885923147E-003           8      107904           0
</event>
<event>
      5   9999  3.79277E-02  3.60466E+01 -1.00000E+00  1.47700E-01
      21    -1     0     0   502   501  0.000000000E+00  0.000000000E+00  1.032508734E+02  1.032508734E+02  0.000000000E+00  0.00000E+00  9.000E+00
      21    -1     0     0   501   511  0.000000000E+00  0.000000000E+00 -9.037829443E+02  9.037829443E+02  0.000000000E+00  0.00000E+00  9.000E+00
      25     1     1     2     0     0 -4.011123651E+01  5.897210205E+00  4.416759864E+01  1.386342856E+02  1.250000000E+02  0.00000E+00  9.000E+00
      25     1     1     2     0     0  5.258505014E+00  3.302852510E+00 -3.381274741E+02  3.605464595E+02  1.250000000E+02  0.00000E+00  9.000E+00
      21     1     1     2   502   511  3.485273149E+01 -9.200062715E+00 -5.065721954E+02  5.078530725E+02  7.629394531E-06  0.00000E+00  9.000E+00
#rwgt            1           1   5.0647091991420000E-002           8      108029           0
</event>
<event>
      5   9999  3.79277E-02  1.60409E+02 -1.00000E+00  1.15250E-01
      21    -1     0     0   502   501  0.000000000E+00  0.000000000E+00  1.521623810E+02  1.521623810E+02  0.000000000E+00  0.00000E+00  9.000E+00
      21    -1     0     0   501   512  0.000000000E+00  0.000000000E+00 -2.551906621E+03  2.551906621E+03  0.000000000E+00  0.00000E+00  9.000E+00
      25     1     1     2     0     0 -1.888515859E+02 -3.546896273E+01 -3.751608497E+00  2.292641345E+02  1.250000000E+02  0.00000E+00  9.000E+00
      25     1     1     2     0     0  1.614228385E+02 -1.225775885E+02 -3.547235767E+02  4.272428043E+02  1.250000000E+02  0.00000E+00  9.000E+00
      21     1     1     2   502   512  2.742874744E+01  1.580465512E+02 -2.041269055E+03  2.047562064E+03  2.157918644E-05  0.00000E+00  9.000E+00
#rwgt            2          11   7.9057067692548787E-004           8      108251           0
</event>
<event>
      5   9999  3.79277E-02  2.92115E+01 -1.00000E+00  1.53848E-01
      21    -1     0     0   502   501  0.000000000E+00  0.000000000E+00  2.446555196E+02  2.446555196E+02  0.000000000E+00  0.00000E+00  9.000E+00
      21    -1     0     0   511   502  0.000000000E+00  0.000000000E+00 -1.158065127E+02  1.158065127E+02  0.000000000E+00  0.00000E+00  9.000E+00
      25     1     1     2     0     0  7.721287718E+01 -1.897400257E+01  1.818320706E+01  1.492563908E+02  1.250000000E+02  0.00000E+00  9.000E+00
      25     1     1     2     0     0 -5.752271159E+01  4.055196838E+01  1.119519789E+02  1.819658486E+02  1.250000000E+02  0.00000E+00  9.000E+00
      21     1     1     2   511   501 -1.969016559E+01 -2.157796581E+01 -1.286179107E+00  2.923979286E+01  5.202618316E-07  0.00000E+00  9.000E+00
#rwgt            1           1  0.11602750419302033                8      108301           0
</event>
<event>
      5   9999 -3.79277E-02  1.33851E+01 -1.00000E+00  1.82174E-01
      21    -1     0     0   512   501  0.000000000E+00  0.000000000E+00  1.253677796E+02  1.253677796E+02  0.000000000E+00  0.00000E+00  9.000E+00
      21    -1     0     0   501   502  0.000000000E+00  0.000000000E+00 -2.441893582E+03  2.441893582E+03  0.000000000E+00  0.00000E+00  9.000E+00
      25     1     1     2     0     0 -1.883004975E+02 -5.176682690E+01 -6.876290328E+02  7.256690489E+02  1.250000000E+02  0.00000E+00  9.000E+00
      25     1     1     2     0     0  1.900563925E+02  3.849739907E+01 -1.727119898E+03  1.742461369E+03  1.250000000E+02  0.00000E+00  9.000E+00
      21     1     1     2   512   502 -1.755895033E+00  1.326942783E+01  9.822312864E+01  9.913094311E+01  3.303624740E-06  0.00000E+00  9.000E+00
#rwgt            1           1  -7.5093318762164421E-002           8      108531           0
</event>
<event>
      5   9999  3.79277E-02  1.48377E+01 -1.00000E+00  1.77830E-01
      21    -1     0     0   502   511  0.000000000E+00  0.000000000E+00  2.276742076E+02  2.276742076E+02  0.000000000E+00  0.00000E+00  9.000E+00
      21    -1     0     0   501   502  0.000000000E+00  0.000000000E+00 -8.557111178E+02  8.557111178E+02  0.000000000E+00  0.00000E+00  9.000E+00
      25     1     1     2     0     0  1.155277711E+02 -1.918096645E+02 -3.904625969E+02  4.671441457E+02  1.250000000E+02  0.00000E+00  9.000E+00
      25     1     1     2     0     0 -1.301252870E+02  1.891506936E+02 -3.864866943E+02  4.665914059E+02  1.250000000E+02  0.00000E+00  9.000E+00
      21     1     1     2   501   511  1.459751591E+01  2.658970903E+00  1.489123810E+02  1.496497738E+02  5.046370146E-06  0.00000E+00  9.000E+00
#rwgt            1           1   2.9776275573126489E-002           8      108768           0
</event>
<event>
      5   9999  3.79277E-02  3.55301E+01 -1.00000E+00  1.48106E-01
      21    -1     0     0   502   501  0.000000000E+00  0.000000000E+00  3.162673034E+02  3.162673034E+02  0.000000000E+00  0.00000E+00  9.000E+00
      21    -1     0     0   501   512  0.000000000E+00  0.000000000E+00 -6.306119602E+02  6.306119602E+02  0.000000000E+00  0.00000E+00  9.000E+00
      25     1     1     2     0     0  3.736193207E+02 -2.392054263E+01 -3.119987225E+02  5.031220448E+02  1.250000000E+02  0.00000E+00  9.000E+00
      25     1     1     2     0     0 -3.383025040E+02  2.003290347E+01  6.556311130E+01  3.671149997E+02  1.250000000E+02  0.00000E+00  9.000E+00
      21     1     1     2   502   512 -3.531681669E+01  3.887639168E+00 -6.790904561E+01  7.664221914E+01  0.000000000E+00  0.00000E+00  9.000E+00
#rwgt            1           1   4.4247978676857196E-002           8      109118           0
</event>
<event>
      5   9999  3.79277E-02  2.29015E+01 -1.00000E+00  1.61657E-01
      21    -1     0     0   502   501  0.000000000E+00  0.000000000E+00  4.877672162E+02  4.877672162E+02  0.000000000E+00  0.00000E+00  9.000E+00
      21    -1     0     0   511   502  0.000000000E+00  0.000000000E+00 -1.528815820E+02  1.528815820E+02  0.000000000E+00  0.00000E+00  9.000E+00
      25     1     1     2     0     0 -1.660109372E+02 -1.055805772E+02  3.071662015E+02  3.855943009E+02  1.250000000E+02  0.00000E+00  9.000E+00
      25     1     1     2     0     0  1.732874646E+02  8.386580580E+01  3.199999732E+01  2.317563777E+02  1.250000000E+02  0.00000E+00  9.000E+00
      21     1     1     2   511   501 -7.276527347E+00  2.171477136E+01 -4.280564584E+00  2.329811963E+01  4.214684851E-07  0.00000E+00  9.000E+00
#rwgt            1           1   3.8933479353415984E-002           8      109278           0
</event>
<event>
      5   9999  3.79277E-02  6.17066E+01 -1.00000E+00  1.34056E-01
      21    -1     0     0   502   501  0.000000000E+00  0.000000000E+00  4.090619836E+01  4.090619836E+01  0.000000000E+00  0.00000E+00  9.000E+00
       1    -1     0     0   501     0  0.000000000E+00  0.000000000E+00 -1.166034837E+03  1.166034837E+03  0.000000000E+00  0.00000E+00  9.000E+00
      25     1     1     2     0     0 -1.510445958E+02 -2.735805185E+01 -5.067134411E+02  5.440095995E+02  1.250000000E+02  0.00000E+00  9.000E+00
      25     1     1     2     0     0  1.049709023E+02  6.840579579E+01 -4.483661093E+02  4.820325831E+02  1.250000000E+02  0.00000E+00  9.000E+00
       1     1     1     2   502     0  4.607369345E+01 -4.104774394E+01 -1.700490878E+02  1.808988523E+02  2.697398305E-06  0.00000E+00  9.000E+00
#rwgt            1           1   4.1935468222963831E-002           8      109563           0
</event>
<event>
      5   9999  3.79277E-02  3.13717E+01 -1.00000E+00  1.51703E-01
      21    -1     0     0   502   511  0.000000000E+00  0.000000000E+00  9.003422264E+02  9.003422264E+02  0.000000000E+00  0.00000E+00  9.000E+00
      21    -1     0     0   501   502  0.000000000E+00  0.000000000E+00 -3.722579968E+01  3.722579968E+01  0.000000000E+00  0.00000E+00  9.000E+00
      25     1     1     2     0     0  8.051379644E+01 -5.616898189E+01  2.915897077E+02  3.320948412E+02  1.250000000E+02  0.00000E+00  9.000E+00
      25     1     1     2     0     0 -9.803784080E+01  3.014794377E+01  4.062675944E+02  4.372627071E+02  1.250000000E+02  0.00000E+00  9.000E+00
      21     1     1     2   501   511  1.752404435E+01  2.602103812E+01  1.652591247E+02  1.682104778E+02  2.697398305E-06  0.00000E+00  9.000E+00
#rwgt            1           1   2.4815064639445054E-002           8      109633           0
</event>
<event>
      5   9999  3.79277E-02  1.70223E+02 -1.00000E+00  1.14258E-01
      21    -1     0     0   502   501  0.000000000E+00  0.000000000E+00  1.533357875E+02  1.533357875E+02  0.000000000E+00  0.00000E+00  9.000E+00
      21    -1     0     0   501   512  0.000000000E+00  0.000000000E+00 -5.353033461E+02  5.353033461E+02  0.000000000E+00  0.00000E+00  9.000E+00
      25     1     1     2     0     0  1.258627864E+02  1.501643096E+02 -2.249259518E+02  3.234307417E+02  1.250000000E+02  0.00000E+00  9.000E+00
      25     1     1     2     0     0  2.015939534E+01 -6.268155880E+01 -1.238586287E+01  1.418230892E+02  1.250000000E+02  0.00000E+00  9.000E+00
      21     1     1     2   502   512 -1.460221817E+02 -8.748275082E+01 -1.446557440E+02  2.233853028E+02  3.303624740E-06  0.00000E+00  9.000E+00
#rwgt            2          11   1.8869674839354384E-003           8      109815           0
</event>
<event>
      5   9999 -3.79277E-02  7.33093E+01 -1.00000E+00  1.30213E-01
      21    -1     0     0   502   501  0.000000000E+00  0.000000000E+00  7.608830194E+02  7.608830194E+02  0.000000000E+00  0.00000E+00  9.000E+00
      21    -1     0     0   501   511  0.000000000E+00  0.000000000E+00 -8.128117611E+01  8.128117611E+01  0.000000000E+00  0.00000E+00  9.000E+00
      25     1     1     2     0     0 -8.183880203E+00 -1.209725186E+02  2.608344656E+02  3.136254846E+02  1.250000000E+02  0.00000E+00  9.000E+00
      25     1     1     2     0     0 -3.815752113E+01  1.777768390E+02  3.932366324E+02  4.509109114E+02  1.250000000E+02  0.00000E+00  9.000E+00
      21     1     1     2   502   511  4.634140133E+01 -5.680432047E+01  2.553074522E+01  7.762779949E+01  2.261837239E-06  0.00000E+00  9.000E+00
#rwgt            1           1 -0.14489080284791919                8      109910           0
</event>
<event>
      5   9999  4.21072E-02  7.84495E+01 -1.00000E+00  1.28762E-01
       1    -1     0     0   502     0  0.000000000E+00  0.000000000E+00  1.722646855E+02  1.722646855E+02  0.000000000E+00  0.00000E+00  9.000E+00
      21    -1     0     0   501   502  0.000000000E+00  0.000000000E+00 -1.515566608E+03  1.515566608E+03  0.000000000E+00  0.00000E+00  9.000E+00
      25     1     1     2     0     0 -2.201104034E+01  4.062263668E+02 -4.297942801E+02  6.048573966E+02  1.250000000E+02  0.00000E+00  9.000E+00
      25     1     1     2     0     0  2.461938894E+01 -4.846324754E+02 -8.191545395E+02  9.602676242E+02  1.250000000E+02  0.00000E+00  9.000E+00
       1     1     1     2   501     0 -2.608348600E+00  7.840610862E+01 -9.435310301E+01  1.227062729E+02  1.348699152E-06  0.00000E+00  9.000E+00
#rwgt            1           1   1.3412402300180233                8      110071           0
</event>
<event>
      5   9999  3.79277E-02  1.65300E+02 -1.00000E+00  1.14746E-01
      21    -1     0     0   502   511  0.000000000E+00  0.000000000E+00  4.396533866E+03  4.396533866E+03  0.000000000E+00  0.00000E+00  9.000E+00
      21    -1     0     0   501   502  0.000000000E+00  0.000000000E+00 -7.517702443E+01  7.517702443E+01  0.000000000E+00  0.00000E+00  9.000E+00
      25     1     1     2     0     0 -2.136491735E+02  5.164500398E+01  6.656794345E+02  7.120865715E+02  1.250000000E+02  0.00000E+00  9.000E+00
      25     1     1     2     0     0  2.405363842E+02  1.114531852E+02  3.805890834E+02  4.803671669E+02  1.250000000E+02  0.00000E+00  9.000E+00
      21     1     1     2   501   511 -2.688721070E+01 -1.630981892E+02  3.275088324E+03  3.279257152E+03  0.000000000E+00  0.00000E+00  9.000E+00
#rwgt            2          11   4.6816815117188089E-005           8      110191           0
</event>
<event>
      5   9999  3.79277E-02  5.73153E+01 -1.00000E+00  1.35774E-01
      21    -1     0     0   512   501  0.000000000E+00  0.000000000E+00  9.632610219E+01  9.632610219E+01  0.000000000E+00  0.00000E+00  9.000E+00
      21    -1     0     0   501   502  0.000000000E+00  0.000000000E+00 -4.432714856E+02  4.432714856E+02  0.000000000E+00  0.00000E+00  9.000E+00
      25     1     1     2     0     0 -1.201033656E+02 -1.881159411E+01 -2.713932621E+02  3.225802183E+02  1.250000000E+02  0.00000E+00  9.000E+00
      25     1     1     2     0     0  7.329013676E+01 -1.425746107E+01 -6.114523161E+01  1.579191524E+02  1.250000000E+02  0.00000E+00  9.000E+00
      21     1     1     2   512   502  4.681322881E+01  3.306905518E+01 -1.440688974E+01  5.909821718E+01  9.386548846E-07  0.00000E+00  9.000E+00
#rwgt            1           1   4.1464726498686042E-003           8      110406           0
</event>
<event>
      5   9999  3.79277E-02  2.72896E+01 -1.00000E+00  1.55952E-01
      21    -1     0     0   502   511  0.000000000E+00  0.000000000E+00  7.590398615E+01  7.590398615E+01  0.000000000E+00  0.00000E+00  9.000E+00
      21    -1     0     0   501   502  0.000000000E+00  0.000000000E+00 -7.263394422E+02  7.263394422E+02  0.000000000E+00  0.00000E+00  9.000E+00
      25     1     1     2     0     0 -7.163650129E+01  2.254830297E+01 -1.011096242E+02  1.774496277E+02  1.250000000E+02  0.00000E+00  9.000E+00
      25     1     1     2     0     0  9.886922968E+01 -2.078731574E+01 -5.689272725E+02  5.911941124E+02  1.250000000E+02  0.00000E+00  9.000E+00
      21     1     1     2   501   511 -2.723272840E+01 -1.760987231E+00  1.960144067E+01  3.359968822E+01  1.168007728E-06  0.00000E+00  9.000E+00
#rwgt            1           1   3.6999010628465896E-002           8      110630           0
</event>
<event>
      5   9999  3.79277E-02  1.99884E+01 -1.00000E+00  1.66390E-01
      21    -1     0     0   512   501  0.000000000E+00  0.000000000E+00  2.583007341E+02  2.583007341E+02  0.000000000E+00  0.00000E+00  9.000E+00
      21    -1     0     0   501   502  0.000000000E+00  0.000000000E+00 -3.058907626E+02  3.058907626E+02  0.000000000E+00  0.00000E+00  9.000E+00
      25     1     1     2     0     0 -1.586463807E+02 -1.623507832E+02 -3.654798610E+01  2.617006041E+02  1.250000000E+02  0.00000E+00  9.000E+00
      25     1     1     2     0     0  1.717210793E+02  1.774699884E+02 -2.530243503E+01  2.779369336E+02  1.250000000E+02  0.00000E+00  9.000E+00
      21     1     1     2   512   502 -1.307469858E+01 -1.511920514E+01  1.426039260E+01  2.455395903E+01  5.057621821E-07  0.00000E+00  9.000E+00
#rwgt            1           1   4.3286096454366846E-002           8      110845           0
</event>
<event>
      5   9999  3.79277E-02  4.15988E+01 -1.00000E+00  1.43792E-01
      21    -1     0     0   502   511  0.000000000E+00  0.000000000E+00  2.458986157E+02  2.458986157E+02  0.000000000E+00  0.00000E+00  9.000E+00
      21    -1     0     0   501   502  0.000000000E+00  0.000000000E+00 -5.463290395E+02  5.463290395E+02  0.000000000E+00  0.00000E+00  9.000E+00
      25     1     1     2     0     0  1.350068853E+02  2.442103509E+02  4.732006965E+01  3.094022359E+02  1.250000000E+02  0.00000E+00  9.000E+00
      25     1     1     2     0     0 -9.758837276E+01 -2.260357851E+02 -3.439266382E+02  4.410512431E+02  1.250000000E+02  0.00000E+00  9.000E+00
      21     1     1     2   501   511 -3.741851257E+01 -1.817456582E+01 -3.823855213E+00  4.177417616E+01  5.930587274E-07  0.00000E+00  9.000E+00
#rwgt            1           1   3.7667421568493294E-002           8      111175           0
</event>
<event>
      5   9999  3.79277E-02  1.12380E+01 -1.00000E+00  1.90074E-01
      21    -1     0     0   502   501  0.000000000E+00  0.000000000E+00  1.917750332E+02  1.917750332E+02  0.000000000E+00  0.00000E+00  9.000E+00
       2    -1     0     0   501     0  0.000000000E+00  0.000000000E+00 -1.036714225E+03  1.036714225E+03  0.000000000E+00  0.00000E+00  9.000E+00
      25     1     1     2     0     0  1.494198609E+02  8.267104588E+01  2.371196191E+01  2.129508248E+02  1.250000000E+02  0.00000E+00  9.000E+00
      25     1     1     2     0     0 -1.466366576E+02 -7.178310830E+01 -7.059379041E+01  2.174019485E+02  1.250000000E+02  0.00000E+00  9.000E+00
       2     1     1     2   502     0 -2.783203330E+00 -1.088793759E+01 -7.980573634E+02  7.981364850E+02  0.000000000E+00  0.00000E+00  9.000E+00
#rwgt            1           1   4.2172397683125466E-002           8      111351           0
</event>
<event>
      5   9999  3.79277E-02  4.00960E+01 -1.00000E+00  1.44776E-01
      21    -1     0     0   502   501  0.000000000E+00  0.000000000E+00  4.408814574E+02  4.408814574E+02  0.000000000E+00  0.00000E+00  9.000E+00
      21    -1     0     0   511   502  0.000000000E+00  0.000000000E+00 -1.614094463E+02  1.614094463E+02  0.000000000E+00  0.00000E+00  9.000E+00
      25     1     1     2     0     0 -5.152682998E+00 -1.096170856E+02 -5.095528654E+01  1.739652173E+02  1.250000000E+02  0.00000E+00  9.000E+00
      25     1     1     2     0     0 -3.485963181E+01  1.122064902E+02  3.452938253E+02  3.855623376E+02  1.250000000E+02  0.00000E+00  9.000E+00
      21     1     1     2   511   501  4.001231481E+01 -2.589404575E+00 -1.486652768E+01  4.276334877E+01  8.596304120E-07  0.00000E+00  9.000E+00
#rwgt            1           1   4.7142211370878755E-002           8      111606           0
</event>
<event>
      5   9999  3.79277E-02  3.65446E+01 -1.00000E+00  1.47316E-01
      21    -1     0     0   512   501  0.000000000E+00  0.000000000E+00  4.677906888E+01  4.677906888E+01  0.000000000E+00  0.00000E+00  9.000E+00
      21    -1     0     0   501   502  0.000000000E+00  0.000000000E+00 -1.447085270E+03  1.447085270E+03  0.000000000E+00  0.00000E+00  9.000E+00
      25     1     1     2     0     0 -4.240229690E+01 -1.439081729E+02 -1.045090208E+03  1.063177341E+03  1.250000000E+02  0.00000E+00  9.000E+00
      25     1     1     2     0     0  1.223852303E+01  1.645396138E+02 -3.018835200E+02  3.660351426E+02  1.250000000E+02  0.00000E+00  9.000E+00
      21     1     1     2   512   502  3.016377387E+01 -2.063144096E+01 -5.333247294E+01  6.465185442E+01  6.743495762E-07  0.00000E+00  9.000E+00
#rwgt            1           1   3.4446818166594499E-002           8      111997           0
</event>
<event>
      5   9999  3.79277E-02  3.66370E+01 -1.00000E+00  1.47246E-01
      21    -1     0     0   502   511  0.000000000E+00  0.000000000E+00  2.148968963E+02  2.148968963E+02  0.000000000E+00  0.00000E+00  9.000E+00
      21    -1     0     0   501   502  0.000000000E+00  0.000000000E+00 -5.853455703E+02  5.853455703E+02  0.000000000E+00  0.00000E+00  9.000E+00
      25     1     1     2     0     0  1.546163647E+02  1.018042201E+02 -3.540020324E+02  4.185842310E+02  1.250000000E+02  0.00000E+00  9.000E+00
      25     1     1     2     0     0 -1.701766953E+02 -1.349726908E+02 -1.155783664E+02  2.759729945E+02  1.250000000E+02  0.00000E+00  9.000E+00
      21     1     1     2   501   511  1.556033059E+01  3.316847069E+01  9.913172486E+01  1.056852412E+02  0.000000000E+00  0.00000E+00  9.000E+00
#rwgt            1           1   3.4671521570946308E-002           8      112165           0
</event>
<event>
      5   9999  3.79277E-02  1.59794E+01 -1.00000E+00  1.74834E-01
      21    -1     0     0   512   501  0.000000000E+00  0.000000000E+00  1.753623458E+03  1.753623458E+03  0.000000000E+00  0.00000E+00  9.000E+00
      21    -1     0     0   501   502  0.000000000E+00  0.000000000E+00 -1.176219722E+02  1.176219722E+02  0.000000000E+00  0.00000E+00  9.000E+00
      25     1     1     2     0     0  1.560063171E+02 -2.969456842E+02  1.342165234E+03  1.389081433E+03  1.250000000E+02  0.00000E+00  9.000E+00
      25     1     1     2     0     0 -1.699749732E+02  2.891856647E+02  2.531156135E+02  4.384202937E+02  1.250000000E+02  0.00000E+00  9.000E+00
      21     1     1     2   512   502  1.396865605E+01  7.760019512E+00  4.072063799E+01  4.374370370E+01  4.768371582E-07  0.00000E+00  9.000E+00
#rwgt            1           1   3.0208424369920855E-002           8      112449           0
</event>
<event>
      5   9999  3.79277E-02  1.04647E+02  7.55638E-03  1.22947E-01
      -1    -1     0     0     0   501  0.000000000E+00  0.000000000E+00  6.372579352E+02  6.372579352E+02  0.000000000E+00  0.00000E+00  9.000E+00
       1    -1     0     0   502     0  0.000000000E+00  0.000000000E+00 -9.980756380E+01  9.980756380E+01  0.000000000E+00  0.00000E+00  9.000E+00
      25     1     1     2     0     0 -8.902099812E+01  9.214786303E+01  1.675025040E+02  2.451490478E+02  1.250000000E+02  0.00000E+00  9.000E+00
      25     1     1     2     0     0 -1.501980071E+01 -8.089818391E+01  5.400924459E+01  1.590977972E+02  1.250000000E+02  0.00000E+00  9.000E+00
      21     1     1     2   502   501  1.040407988E+02 -1.124967912E+01  3.159386228E+02  3.328186540E+02  5.394796609E-06  0.00000E+00  9.000E+00
#rwgt            3           5   7.0270257739356404E-005           8      112826           0
</event>
<event>
      5   9999  3.79277E-02  3.77098E+01 -1.00000E+00  1.46446E-01
      21    -1     0     0   502   501  0.000000000E+00  0.000000000E+00  5.543462489E+01  5.543462489E+01  0.000000000E+00  0.00000E+00  9.000E+00
       1    -1     0     0   501     0  0.000000000E+00  0.000000000E+00 -3.059899854E+03  3.059899854E+03  0.000000000E+00  0.00000E+00  9.000E+00
      25     1     1     2     0     0 -1.591875524E+02  9.073201917E+01 -3.051773771E+02  3.772680846E+02  1.250000000E+02  0.00000E+00  9.000E+00
      25     1     1     2     0     0  1.259884937E+02 -7.284752456E+01 -4.592374176E+02  4.976985715E+02  1.250000000E+02  0.00000E+00  9.000E+00
       1     1     1     2   502     0  3.319905873E+01 -1.788449461E+01 -2.240050434E+03  2.240367823E+03  4.315837288E-05  0.00000E+00  9.000E+00
#rwgt            1           1   3.3663523222986498E-002           8      112905           0
</event>
<event>
      5   9999  3.79277E-02  1.15018E+02 -1.00000E+00  1.21155E-01
       2    -1     0     0   502     0  0.000000000E+00  0.000000000E+00  5.915781132E+02  5.915781132E+02  0.000000000E+00  0.00000E+00  9.000E+00
      21    -1     0     0   501   502  0.000000000E+00  0.000000000E+00 -1.932801174E+03  1.932801174E+03  0.000000000E+00  0.00000E+00  9.000E+00
      25     1     1     2     0     0  3.156026380E+02 -1.831477482E+02 -1.334393669E+03  1.389021089E+03  1.250000000E+02  0.00000E+00  9.000E+00
      25     1     1     2     0     0 -2.705089112E+02  7.733822113E+01 -5.228054485E+02  6.067180634E+02  1.250000000E+02  0.00000E+00  9.000E+00
       2     1     1     2   501     0 -4.509372685E+01  1.058095271E+02  5.159760570E+02  5.286401343E+02  1.078959322E-05  0.00000E+00  9.000E+00
#rwgt            2          18   1.9437867383660403E-003           8      113104           0
</event>
<event>
      5   9999  3.79277E-02  5.35185E+01 -1.00000E+00  1.37411E-01
       2    -1     0     0   502     0  0.000000000E+00  0.000000000E+00  1.419555468E+03  1.419555468E+03  0.000000000E+00  0.00000E+00  9.000E+00
      21    -1     0     0   501   502  0.000000000E+00  0.000000000E+00 -4.905711987E+01  4.905711987E+01  0.000000000E+00  0.00000E+00  9.000E+00
      25     1     1     2     0     0 -3.343279049E+00 -1.509697509E+02  3.018202350E+02  3.598937308E+02  1.250000000E+02  0.00000E+00  9.000E+00
      25     1     1     2     0     0  5.464970519E+01  1.357422880E+02  4.731673876E+02  5.108081202E+02  1.250000000E+02  0.00000E+00  9.000E+00
       2     1     1     2   501     0 -5.130642614E+01  1.522746292E+01  5.955107258E+02  5.979107371E+02  1.078959322E-05  0.00000E+00  9.000E+00
#rwgt            1           1   2.1399262297794840E-002           8      113378           0
</event>
<event>
      5   9999  3.79277E-02  3.91678E+01 -1.00000E+00  1.45409E-01
      21    -1     0     0   502   501  0.000000000E+00  0.000000000E+00  9.731746486E+01  9.731746486E+01  0.000000000E+00  0.00000E+00  9.000E+00
      21    -1     0     0   511   502  0.000000000E+00  0.000000000E+00 -9.885182720E+02  9.885182720E+02  0.000000000E+00  0.00000E+00  9.000E+00
      25     1     1     2     0     0  1.703891468E+02 -4.983062186E+01 -3.476237459E+02  4.098570738E+02  1.250000000E+02  0.00000E+00  9.000E+00
      25     1     1     2     0     0 -1.610089976E+02  8.785862538E+01 -1.233604562E+02  2.539406181E+02  1.250000000E+02  0.00000E+00  9.000E+00
      21     1     1     2   511   501 -9.380149212E+00 -3.802800353E+01 -4.202166050E+02  4.220380450E+02  5.394796609E-06  0.00000E+00  9.000E+00
#rwgt            1           1   3.9032735569794030E-002           8      113511           0
</event>
<event>
      5   9999  3.79277E-02  4.75868E+01 -1.00000E+00  1.40312E-01
      21    -1     0     0   502   501  0.000000000E+00  0.000000000E+00  1.437049447E+02  1.437049447E+02  0.000000000E+00  0.00000E+00  9.000E+00
       2    -1     0     0   501     0  0.000000000E+00  0.000000000E+00 -7.713117666E+02  7.713117666E+02  0.000000000E+00  0.00000E+00  9.000E+00
      25     1     1     2     0     0  1.187141489E+02  6.071899297E+01 -7.374787641E+01  1.970877838E+02  1.250000000E+02  0.00000E+00  9.000E+00
      25     1     1     2     0     0 -7.356740977E+01 -7.576142071E+01 -1.621214282E+00  1.636446913E+02  1.250000000E+02  0.00000E+00  9.000E+00
       2     1     1     2   502     0 -4.514673908E+01  1.504242773E+01 -5.522377313E+02  5.542842362E+02  7.629394531E-06  0.00000E+00  9.000E+00
#rwgt            1           1   2.6473590319184788E-002           8      113637           0
</event>
<event>
      5   9999  3.79277E-02  2.30422E+01 -1.00000E+00  1.61450E-01
      21    -1     0     0   502   501  0.000000000E+00  0.000000000E+00  1.377393497E+03  1.377393497E+03  0.000000000E+00  0.00000E+00  9.000E+00
      -1    -1     0     0     0   502  0.000000000E+00  0.000000000E+00 -1.221802212E+03  1.221802212E+03  0.000000000E+00  0.00000E+00  9.000E+00
      25     1     1     2     0     0 -2.067820472E+02 -1.339584551E+02  1.044287091E+03  1.080214891E+03  1.250000000E+02  0.00000E+00  9.000E+00
      25     1     1     2     0     0  1.860609626E+02  1.440372201E+02  2.586900416E+02  3.713636226E+02  1.250000000E+02  0.00000E+00  9.000E+00
      -1     1     1     2     0   501  2.072108463E+01 -1.007876498E+01 -1.147385847E+03  1.147617195E+03  1.525878906E-05  0.00000E+00  9.000E+00
#rwgt            1           1   4.0462389316844392E-002           8      113815           0
</event>
<event>
      5   9999  3.79277E-02  1.78073E+02 -1.00000E+00  1.13515E-01
      21    -1     0     0   511   501  0.000000000E+00  0.000000000E+00  3.923534347E+02  3.923534347E+02  0.000000000E+00  0.00000E+00  9.000E+00
      21    -1     0     0   501   502  0.000000000E+00  0.000000000E+00 -5.283741239E+02  5.283741239E+02  0.000000000E+00  0.00000E+00  9.000E+00
      25     1     1     2     0     0  2.133245159E+02  3.594288983E+00 -3.689759669E+02  4.441717372E+02  1.250000000E+02  0.00000E+00  9.000E+00
      25     1     1     2     0     0 -1.029066938E+02  1.361116939E+02  4.236578902E+01  2.157221382E+02  1.250000000E+02  0.00000E+00  9.000E+00
      21     1     1     2   511   502 -1.104178221E+02 -1.397059829E+02  1.905894887E+02  2.608336832E+02  3.814697266E-06  0.00000E+00  9.000E+00
#rwgt            2          11   2.2775863568687787E-003           8      114028           0
</event>
<event>
      5   9999  3.79277E-02  7.01399E+01 -1.00000E+00  1.31177E-01
      21    -1     0     0   502   501  0.000000000E+00  0.000000000E+00  6.005515449E+02  6.005515449E+02  0.000000000E+00  0.00000E+00  9.000E+00
      21    -1     0     0   501   512  0.000000000E+00  0.000000000E+00 -2.983617400E+02  2.983617400E+02  0.000000000E+00  0.00000E+00  9.000E+00
      25     1     1     2     0     0  2.215467997E+02 -2.004267281E+01  6.068443487E+01  2.622828508E+02  1.250000000E+02  0.00000E+00  9.000E+00
      25     1     1     2     0     0 -2.574850597E+02  8.027598635E+01  3.793611603E+02  4.819571349E+02  1.250000000E+02  0.00000E+00  9.000E+00
      21     1     1     2   502   512  3.593825999E+01 -6.023331354E+01 -1.378557902E+02  1.546732992E+02  2.697398305E-06  0.00000E+00  9.000E+00
#rwgt            1           1   3.7014378406111229E-002           8      114093           0
</event>
<event>
      5   9999  3.79277E-02  9.22271E+00 -1.00000E+00  1.99909E-01
      21    -1     0     0   502   501  0.000000000E+00  0.000000000E+00  7.173193813E+01  7.173193813E+01  0.000000000E+00  0.00000E+00  9.000E+00
      21    -1     0     0   501   511  0.000000000E+00  0.000000000E+00 -1.116048700E+03  1.116048700E+03  0.000000000E+00  0.00000E+00  9.000E+00
      25     1     1     2     0     0 -8.595422904E+01 -2.758952212E+01 -4.432185955E+02  4.692728786E+02  1.250000000E+02  0.00000E+00  9.000E+00
      25     1     1     2     0     0  8.307372702E+01  1.882818337E+01 -3.883567383E+01  1.561696327E+02  1.250000000E+02  0.00000E+00  9.000E+00
      21     1     1     2   502   511  2.880502015E+00  8.761338746E+00 -5.622624924E+02  5.623381267E+02  7.629394531E-06  0.00000E+00  9.000E+00
#rwgt            1           1   3.7329555877150991E-002           8      114207           0
</event>
<event>
      5   9999  3.79277E-02  4.01771E+01 -1.00000E+00  1.44721E-01
      21    -1     0     0   502   501  0.000000000E+00  0.000000000E+00  3.546733935E+02  3.546733935E+02  0.000000000E+00  0.00000E+00  9.000E+00
      21    -1     0     0   512   502  0.000000000E+00  0.000000000E+00 -3.186770752E+02  3.186770752E+02  0.000000000E+00  0.00000E+00  9.000E+00
      25     1     1     2     0     0 -1.698722206E+02 -3.873664805E+01  7.786265415E+01  2.281330580E+02  1.250000000E+02  0.00000E+00  9.000E+00
      25     1     1     2     0     0  1.742173448E+02  7.867810006E+01  1.340086581E+02  2.648117201E+02  1.250000000E+02  0.00000E+00  9.000E+00
      21     1     1     2   512   501 -4.345124132E+00 -3.994145201E+01 -1.758749940E+02  1.804056907E+02  1.907348633E-06  0.00000E+00  9.000E+00
#rwgt            1           1   2.5265144238551335E-002           8      114550           0
</event>
<event>
      5   9999  3.79277E-02  2.07487E+01 -1.00000E+00  1.65063E-01
      21    -1     0     0   511   501  0.000000000E+00  0.000000000E+00  2.311494794E+03  2.311494794E+03  0.000000000E+00  0.00000E+00  9.000E+00
      21    -1     0     0   501   502  0.000000000E+00  0.000000000E+00 -2.060686860E+01  2.060686860E+01  0.000000000E+00  0.00000E+00  9.000E+00
      25     1     1     2     0     0  5.865509930E+01 -6.937928010E+01  6.778162897E+02  6.952077587E+02  1.250000000E+02  0.00000E+00  9.000E+00
      25     1     1     2     0     0 -7.434578831E+01  5.580312140E+01  5.016795111E+02  5.253081157E+02  1.250000000E+02  0.00000E+00  9.000E+00
      21     1     1     2   511   502  1.569068901E+01  1.357615869E+01  1.111392125E+03  1.111585788E+03  0.000000000E+00  0.00000E+00  9.000E+00
#rwgt            1           1   2.9321004868060371E-002           8      114670           0
</event>
<event>
      5   9999  3.79277E-02  3.27393E+01 -1.00000E+00  1.50450E-01
      21    -1     0     0   502   501  0.000000000E+00  0.000000000E+00  1.852408848E+02  1.852408848E+02  0.000000000E+00  0.00000E+00  9.000E+00
      21    -1     0     0   512   502  0.000000000E+00  0.000000000E+00 -3.554010071E+02  3.554010071E+02  0.000000000E+00  0.00000E+00  9.000E+00
      25     1     1     2     0     0  1.497202639E+02 -7.443338273E+01 -1.317623963E+02  2.468659858E+02  1.250000000E+02  0.00000E+00  9.000E+00
      25     1     1     2     0     0 -1.548164904E+02  1.067736250E+02  2.013016347E+01  2.267134230E+02  1.250000000E+02  0.00000E+00  9.000E+00
      21     1     1     2   512   501  5.096226485E+00 -3.234024228E+01 -5.852788944E+01  6.706248309E+01  9.536743164E-07  0.00000E+00  9.000E+00
#rwgt            1           1   3.8093353920166599E-002           8      114814           0
</event>
<event>
      5   9999  3.79277E-02  1.19096E+02 -1.00000E+00  1.20508E-01
      21    -1     0     0   502   511  0.000000000E+00  0.000000000E+00  7.512193943E+02  7.512193943E+02  0.000000000E+00  0.00000E+00  9.000E+00
      21    -1     0     0   501   502  0.000000000E+00  0.000000000E+00 -1.219789266E+02  1.219789266E+02  0.000000000E+00  0.00000E+00  9.000E+00
      25     1     1     2     0     0 -4.827986273E+01  5.038278798E+01  4.234831585E+02  4.470261245E+02  1.250000000E+02  0.00000E+00  9.000E+00
      25     1     1     2     0     0  1.412444901E+02 -1.248240550E+02  5.269556624E+01  2.322345224E+02  1.250000000E+02  0.00000E+00  9.000E+00
      21     1     1     2   501   511 -9.296462739E+01  7.444126707E+01  1.530617430E+02  1.939376739E+02  1.907348633E-06  0.00000E+00  9.000E+00
#rwgt            1           1   5.1356118579200694E-002           8      115006           0
</event>
<event>
      5   9999  3.79277E-02  1.47424E+02 -1.00000E+00  1.16693E-01
      21    -1     0     0   502   501  0.000000000E+00  0.000000000E+00  7.819169062E+02  7.819169062E+02  0.000000000E+00  0.00000E+00  9.000E+00
      21    -1     0     0   501   512  0.000000000E+00  0.000000000E+00 -2.027034854E+02  2.027034854E+02  0.000000000E+00  0.00000E+00  9.000E+00
      25     1     1     2     0     0  1.457806151E+02  1.031711755E+02  8.649177271E+01  2.345252778E+02  1.250000000E+02  0.00000E+00  9.000E+00
      25     1     1     2     0     0 -2.836077527E+02 -5.084973630E+01  5.127712832E+02  6.013139296E+02  1.250000000E+02  0.00000E+00  9.000E+00
      21     1     1     2   502   512  1.378271376E+02 -5.232143923E+01 -2.004963516E+01  1.487811841E+02  3.799766886E-06  0.00000E+00  9.000E+00
#rwgt            1           1   2.0562754336990254E-002           8      115194           0
</event>
<event>
      5   9999  3.79277E-02  8.02531E+01 -1.00000E+00  1.28283E-01
      21    -1     0     0   502   501  0.000000000E+00  0.000000000E+00  1.031719323E+02  1.031719323E+02  0.000000000E+00  0.00000E+00  9.000E+00
      21    -1     0     0   511   502  0.000000000E+00  0.000000000E+00 -1.487949920E+03  1.487949920E+03  0.000000000E+00  0.00000E+00  9.000E+00
      25     1     1     2     0     0  1.737295912E+01  2.782692299E+02 -4.936318996E+02  5.805454645E+02  1.250000000E+02  0.00000E+00  9.000E+00
      25     1     1     2     0     0 -7.589535556E+01 -2.233539489E+02 -2.543251232E+02  3.687185374E+02  1.250000000E+02  0.00000E+00  9.000E+00
      21     1     1     2   511   501  5.852239644E+01 -5.491528104E+01 -6.368209650E+02  6.418578507E+02  0.000000000E+00  0.00000E+00  9.000E+00
#rwgt            1           1   3.7079871773681987E-002           8      115369           0
</event>
<event>
      5   9999 -3.79277E-02  3.52897E+01 -1.00000E+00  1.48297E-01
      21    -1     0     0   502   501  0.000000000E+00  0.000000000E+00  2.969292916E+02  2.969292916E+02  0.000000000E+00  0.00000E+00  9.000E+00
      21    -1     0     0   512   502  0.000000000E+00  0.000000000E+00 -2.240481406E+02  2.240481406E+02  0.000000000E+00  0.00000E+00  9.000E+00
      25     1     1     2     0     0 -2.068506866E+02 -5.214017802E+01  8.467849994E+01  2.613450842E+02  1.250000000E+02  0.00000E+00  9.000E+00
      25     1     1     2     0     0  1.738205949E+02  6.456513106E+01 -4.910738863E+00  2.236769338E+02  1.250000000E+02  0.00000E+00  9.000E+00
      21     1     1     2   512   501  3.303009163E+01 -1.242495304E+01 -6.886610087E+00  3.595541419E+01  1.884864366E-07  0.00000E+00  9.000E+00
#rwgt            1           1  -8.5949031211540794E-002           8      115480           0
</event>
<event>
      5   9999  3.79277E-02  4.41585E+01 -1.00000E+00  1.42226E-01
      21    -1     0     0   502   511  0.000000000E+00  0.000000000E+00  2.868072400E+02  2.868072400E+02  0.000000000E+00  0.00000E+00  9.000E+00
      21    -1     0     0   501   502  0.000000000E+00  0.000000000E+00 -8.451391569E+02  8.451391569E+02  0.000000000E+00  0.00000E+00  9.000E+00
      25     1     1     2     0     0  1.723189276E+02  2.984511673E+02 -4.273681966E+02  5.630590445E+02  1.250000000E+02  0.00000E+00  9.000E+00
      25     1     1     2     0     0 -2.092377416E+02 -2.742235367E+02 -2.486393173E+02  4.431991547E+02  1.250000000E+02  0.00000E+00  9.000E+00
      21     1     1     2   501   511  3.691881399E+01 -2.422763063E+01  1.176755971E+02  1.256881978E+02  2.336015456E-06  0.00000E+00  9.000E+00
#rwgt            1           1   3.0778696206808110E-002           8      115642           0
</event>
<event>
      5   9999  3.79277E-02  7.70974E+01 -1.00000E+00  1.29131E-01
      21    -1     0     0   502   501  0.000000000E+00  0.000000000E+00  1.388655935E+02  1.388655935E+02  0.000000000E+00  0.00000E+00  9.000E+00
      21    -1     0     0   512   502  0.000000000E+00  0.000000000E+00 -3.791501170E+02  3.791501170E+02  0.000000000E+00  0.00000E+00  9.000E+00
      25     1     1     2     0     0  7.326084740E+01  1.501036611E+02 -1.587435243E+02  2.621502762E+02  1.250000000E+02  0.00000E+00  9.000E+00
      25     1     1     2     0     0 -2.223463761E+01 -9.230809021E+01 -2.211188402E+01  1.585216012E+02  1.250000000E+02  0.00000E+00  9.000E+00
      21     1     1     2   512   501 -5.102620979E+01 -5.779557090E+01 -5.942911523E+01  9.734383307E+01  0.000000000E+00  0.00000E+00  9.000E+00
#rwgt            1           1   3.6934370753688099E-002           8      115924           0
</event>
<event>
      5   9999  3.79277E-02  1.31280E+02 -1.00000E+00  1.18735E-01
      21    -1     0     0   502   501  0.000000000E+00  0.000000000E+00  1.014757573E+02  1.014757573E+02  0.000000000E+00  0.00000E+00  9.000E+00
       2    -1     0     0   501     0  0.000000000E+00  0.000000000E+00 -1.523617110E+03  1.523617110E+03  0.000000000E+00  0.00000E+00  9.000E+00
      25     1     1     2     0     0  8.674958290E+01 -7.042304229E+00 -1.288786097E+03  1.297755635E+03  1.250000000E+02  0.00000E+00  9.000E+00
      25     1     1     2     0     0  2.295508404E+01 -6.506474406E+01 -3.701390369E+00  1.428252677E+02  1.250000000E+02  0.00000E+00  9.000E+00
       2     1     1     2   502     0 -1.097046669E+02  7.210704828E+01 -1.296538656E+02  1.845119650E+02  1.907348633E-06  0.00000E+00  9.000E+00
#rwgt            1           1   5.0993052683563383E-002           8      116005           0
</event>
<event>
      5   9999  5.12824E-02  4.54311E+01 -1.00000E+00  1.41492E-01
      21    -1     0     0   502   501  0.000000000E+00  0.000000000E+00  1.655366171E+03  1.655366171E+03  0.000000000E+00  0.00000E+00  9.000E+00
      21    -1     0     0   511   502  0.000000000E+00  0.000000000E+00 -4.715612310E+02  4.715612310E+02  0.000000000E+00  0.00000E+00  9.000E+00
      25     1     1     2     0     0  2.008182721E+01  6.545574456E+01  1.211970853E+03  1.220322123E+03  1.250000000E+02  0.00000E+00  9.000E+00
      25     1     1     2     0     0 -3.823986882E+01 -2.381115736E+01  4.280168256E+02  4.481658864E+02  1.250000000E+02  0.00000E+00  9.000E+00
      21     1     1     2   511   501  1.815804161E+01 -4.164458720E+01 -4.561827385E+02  4.584393930E+02  7.629394531E-06  0.00000E+00  9.000E+00
#rwgt            1           1  0.40948377407924841                8      116090           0
</event>
<event>
      5   9999  3.79277E-02  1.76946E+02 -1.00000E+00  1.13619E-01
       2    -1     0     0   502     0  0.000000000E+00  0.000000000E+00  1.989035665E+03  1.989035665E+03  0.000000000E+00  0.00000E+00  9.000E+00
      21    -1     0     0   501   502  0.000000000E+00  0.000000000E+00 -7.151679465E+02  7.151679465E+02  0.000000000E+00  0.00000E+00  9.000E+00
      25     1     1     2     0     0 -3.878495654E+02  1.157602568E+01 -5.186005980E+02  6.596460187E+02  1.250000000E+02  0.00000E+00  9.000E+00
      25     1     1     2     0     0  2.362480918E+02  7.967483651E+01  3.833707500E+01  2.815243716E+02  1.250000000E+02  0.00000E+00  9.000E+00
       2     1     1     2   501     0  1.516014736E+02 -9.125086218E+01  1.754131241E+03  1.763033221E+03  0.000000000E+00  0.00000E+00  9.000E+00
#rwgt            1           1   3.3956499575939776E-002           8      116163           0
</event>
<event>
      5   9999  3.79277E-02  1.78256E+01 -1.00000E+00  1.70602E-01
      -4    -1     0     0     0   501  0.000000000E+00  0.000000000E+00  3.661829127E+02  3.661829127E+02  0.000000000E+00  0.00000E+00  9.000E+00
      21    -1     0     0   501   502  0.000000000E+00  0.000000000E+00 -3.074701061E+02  3.074701061E+02  0.000000000E+00  0.00000E+00  9.000E+00
      25     1     1     2     0     0  1.984905120E+01 -1.386615220E+02 -1.145464954E+02  2.199247647E+02  1.250000000E+02  0.00000E+00  9.000E+00
      25     1     1     2     0     0 -3.385685481E+01  1.496857115E+02 -6.990323300E+01  2.099132221E+02  1.250000000E+02  0.00000E+00  9.000E+00
      -4     1     1     2     0   502  1.400780360E+01 -1.102418949E+01  2.431625350E+02  2.438150319E+02  3.814697266E-06  0.00000E+00  9.000E+00
#rwgt            1           1   4.0136552237036258E-002           8      116204           0
</event>
<event>
      5   9999  3.79277E-02  1.85369E+02 -1.00000E+00  1.12862E-01
      21    -1     0     0   502   501  0.000000000E+00  0.000000000E+00  1.364869849E+02  1.364869849E+02  0.000000000E+00  0.00000E+00  9.000E+00
       2    -1     0     0   501     0  0.000000000E+00  0.000000000E+00 -2.170238674E+03  2.170238674E+03  0.000000000E+00  0.00000E+00  9.000E+00
      25     1     1     2     0     0 -1.150623665E+02  2.467224316E+02 -2.237219486E+02  3.738820894E+02  1.250000000E+02  0.00000E+00  9.000E+00
      25     1     1     2     0     0  2.834328305E+02 -1.691796645E+02 -5.133682530E+02  6.229991104E+02  1.250000000E+02  0.00000E+00  9.000E+00
       2     1     1     2   502     0 -1.683704640E+02 -7.754276714E+01 -1.296661487E+03  1.309844459E+03  2.157918644E-05  0.00000E+00  9.000E+00
#rwgt            2          13   1.1163264492135025E-003           8      116594           0
</event>
<event>
      5   9999  3.79277E-02  2.10555E+01 -1.00000E+00  1.64547E-01
      21    -1     0     0   502   501  0.000000000E+00  0.000000000E+00  1.871314119E+02  1.871314119E+02  0.000000000E+00  0.00000E+00  9.000E+00
      21    -1     0     0   511   502  0.000000000E+00  0.000000000E+00 -8.521183880E+02  8.521183880E+02  0.000000000E+00  0.00000E+00  9.000E+00
      25     1     1     2     0     0  3.039795922E+02 -5.372585842E+01 -3.996206506E+02  5.202035417E+02  1.250000000E+02  0.00000E+00  9.000E+00
      25     1     1     2     0     0 -2.937938526E+02  7.215374114E+01 -8.598945401E+01  3.384378471E+02  1.250000000E+02  0.00000E+00  9.000E+00
      21     1     1     2   511   501 -1.018573968E+01 -1.842788272E+01 -1.793768715E+02  1.806084111E+02  2.697398305E-06  0.00000E+00  9.000E+00
#rwgt            1           1   3.1643102349708060E-002           8      116718           0
</event>
<event>
      5   9999  3.79277E-02  3.22028E+01 -1.00000E+00  1.50933E-01
      21    -1     0     0   502   512  0.000000000E+00  0.000000000E+00  1.144643216E+03  1.144643216E+03  0.000000000E+00  0.00000E+00  9.000E+00
      21    -1     0     0   501   502  0.000000000E+00  0.000000000E+00 -5.165323291E+01  5.165323291E+01  0.000000000E+00  0.00000E+00  9.000E+00
      25     1     1     2     0     0 -1.332926329E+02 -5.565620344E+01  4.683347982E+02  5.057934580E+02  1.250000000E+02  0.00000E+00  9.000E+00
      25     1     1     2     0     0  1.176592576E+02  8.380964510E+01  2.508186314E+02  3.152820061E+02  1.250000000E+02  0.00000E+00  9.000E+00
      21     1     1     2   501   512  1.563337535E+01 -2.815344167E+01  3.738365540E+02  3.752209853E+02  7.629394531E-06  0.00000E+00  9.000E+00
#rwgt            1           1   2.6788219246445207E-002           8      117044           0
</event>
<event>
      5   9999  3.79277E-02  1.31934E+01 -1.00000E+00  1.82800E-01
      21    -1     0     0   511   501  0.000000000E+00  0.000000000E+00  1.616575838E+02  1.616575838E+02  0.000000000E+00  0.00000E+00  9.000E+00
      21    -1     0     0   501   502  0.000000000E+00  0.000000000E+00 -4.936410187E+02  4.936410187E+02  0.000000000E+00  0.00000E+00  9.000E+00
      25     1     1     2     0     0  1.013300805E+01  2.229067749E+02 -2.752149182E+02  3.757104728E+02  1.250000000E+02  0.00000E+00  9.000E+00
      25     1     1     2     0     0 -2.245744697E+01 -2.181978372E+02 -6.886283618E+01  2.616901284E+02  1.250000000E+02  0.00000E+00  9.000E+00
      21     1     1     2   511   502  1.232443892E+01 -4.708937675E+00  1.209431955E+01  1.789800140E+01  3.371747881E-07  0.00000E+00  9.000E+00
#rwgt            1           1   2.7280787128569978E-002           8      117279           0
</event>
<event>
      5   9999  3.79277E-02  4.27452E+01 -1.00000E+00  1.43075E-01
      21    -1     0     0   502   512  0.000000000E+00  0.000000000E+00  2.751455724E+02  2.751455724E+02  0.000000000E+00  0.00000E+00  9.000E+00
      21    -1     0     0   501   502  0.000000000E+00  0.000000000E+00 -1.406333057E+02  1.406333057E+02  0.000000000E+00  0.00000E+00  9.000E+00
      25     1     1     2     0     0 -5.960983814E+01 -9.380261624E+01  6.042282687E+01  1.778431377E+02  1.250000000E+02  0.00000E+00  9.000E+00
      25     1     1     2     0     0  8.539384368E+01  5.970952224E+01  1.283232686E+01  1.632391013E+02  1.250000000E+02  0.00000E+00  9.000E+00
      21     1     1     2   501   512 -2.578400555E+01  3.409309400E+01  6.125711301E+01  7.469663911E+01  1.168007728E-06  0.00000E+00  9.000E+00
#rwgt            1           1   4.3163544494507620E-002           8      117535           0
</event>
<event>
      5   9999  3.79277E-02  2.49354E+01 -1.00000E+00  1.58835E-01
      21    -1     0     0   502   501  0.000000000E+00  0.000000000E+00  8.068970376E+01  8.068970376E+01  0.000000000E+00  0.00000E+00  9.000E+00
      21    -1     0     0   501   511  0.000000000E+00  0.000000000E+00 -3.412393590E+03  3.412393590E+03  0.000000000E+00  0.00000E+00  9.000E+00
      25     1     1     2     0     0 -4.366400549E+02  5.140320758E+01 -9.050167981E+02  1.013892121E+03  1.250000000E+02  0.00000E+00  9.000E+00
      25     1     1     2     0     0  4.405738482E+02 -7.602637801E+01 -2.060150125E+03  2.111807014E+03  1.250000000E+02  0.00000E+00  9.000E+00
      21     1     1     2   502   511 -3.933793285E+00  2.462317043E+01 -3.665369629E+02  3.673841592E+02  5.394796609E-06  0.00000E+00  9.000E+00
#rwgt            1           1  0.47122535492700901                8      117715           0
</event>
<event>
      5   9999  3.79277E-02  1.01802E+01 -1.00000E+00  1.94865E-01
      -4    -1     0     0     0   501  0.000000000E+00  0.000000000E+00  1.700162928E+02  1.700162928E+02  0.000000000E+00  0.00000E+00  9.000E+00
      21    -1     0     0   501   502  0.000000000E+00  0.000000000E+00 -1.424457077E+03  1.424457077E+03  0.000000000E+00  0.00000E+00  9.000E+00
      25     1     1     2     0     0  9.494428129E+01 -8.156537222E+01 -3.363300536E+02  3.800134622E+02  1.250000000E+02  0.00000E+00  9.000E+00
      25     1     1     2     0     0 -9.958267608E+01  9.062742596E+01 -1.058185059E+03  1.074016136E+03  1.250000000E+02  0.00000E+00  9.000E+00
      -4     1     1     2     0   502  4.638394791E+00 -9.062053749E+00  1.400743288E+02  1.404437720E+02  5.394796609E-06  0.00000E+00  9.000E+00
#rwgt            1           1   4.4771392731343992E-002           8      117970           0
</event>
<event>
      5   9999  3.79277E-02  1.12791E+01 -1.00000E+00  1.89902E-01
      21    -1     0     0   511   501  0.000000000E+00  0.000000000E+00  6.311077907E+01  6.311077907E+01  0.000000000E+00  0.00000E+00  9.000E+00
      21    -1     0     0   501   502  0.000000000E+00  0.000000000E+00 -6.607892880E+02  6.607892880E+02  0.000000000E+00  0.00000E+00  9.000E+00
      25     1     1     2     0     0 -1.101146469E+02 -9.634942196E+01 -2.389729131E+02  3.068248683E+02  1.250000000E+02  0.00000E+00  9.000E+00
      25     1     1     2     0     0  1.082258245E+02  1.074692507E+02 -3.532058202E+02  4.045266621E+02  1.250000000E+02  0.00000E+00  9.000E+00
      21     1     1     2   511   502  1.888822474E+00 -1.111982874E+01 -5.499775590E+00  1.254853669E+01  1.976862425E-07  0.00000E+00  9.000E+00
#rwgt            1           1   3.7248511074126654E-002           8      118394           0
</event>
<event>
      5   9999  3.79277E-02  4.14065E+01 -1.00000E+00  1.43915E-01
      21    -1     0     0   502   501  0.000000000E+00  0.000000000E+00  1.082792916E+03  1.082792916E+03  0.000000000E+00  0.00000E+00  9.000E+00
      21    -1     0     0   501   512  0.000000000E+00  0.000000000E+00 -1.719076998E+02  1.719076998E+02  0.000000000E+00  0.00000E+00  9.000E+00
      25     1     1     2     0     0 -7.716608242E+01 -3.565711089E+02  1.974873670E+02  4.332710700E+02  1.250000000E+02  0.00000E+00  9.000E+00
      25     1     1     2     0     0  9.826215781E+01  3.209417078E+02  6.786884971E+02  7.673995749E+02  1.250000000E+02  0.00000E+00  9.000E+00
      21     1     1     2   502   512 -2.109607538E+01  3.562940110E+01  3.470935198E+01  5.402997071E+01  4.768371582E-07  0.00000E+00  9.000E+00
#rwgt            1           1   4.4719583615583890E-002           8      118660           0
</event>
<event>
      5   9999  3.79277E-02  1.32987E+01 -1.00000E+00  1.82455E-01
      21    -1     0     0   511   501  0.000000000E+00  0.000000000E+00  1.292296518E+02  1.292296518E+02  0.000000000E+00  0.00000E+00  9.000E+00
      21    -1     0     0   501   502  0.000000000E+00  0.000000000E+00 -2.628128114E+02  2.628128114E+02  0.000000000E+00  0.00000E+00  9.000E+00
      25     1     1     2     0     0  6.579970790E+01 -2.797224503E+01 -1.587020588E+02  2.142974370E+02  1.250000000E+02  0.00000E+00  9.000E+00
      25     1     1     2     0     0 -7.030254384E+01  4.048545382E+01 -3.434930604E-01  1.490189170E+02  1.250000000E+02  0.00000E+00  9.000E+00
      21     1     1     2   511   502  4.502835934E+00 -1.251320879E+01  2.546239223E+01  2.872610910E+01  4.768371582E-07  0.00000E+00  9.000E+00
#rwgt            1           1   3.9912816500260247E-002           8      118972           0
</event>
<event>
      5   9999  3.79277E-02  2.50635E+01 -1.00000E+00  1.58668E-01
      21    -1     0     0   502   501  0.000000000E+00  0.000000000E+00  9.416722269E+02  9.416722269E+02  0.000000000E+00  0.00000E+00  9.000E+00
      21    -1     0     0   512   502  0.000000000E+00  0.000000000E+00 -6.230801120E+02  6.230801120E+02  0.000000000E+00  0.00000E+00  9.000E+00
      25     1     1     2     0     0 -1.244631551E+00 -1.363697693E+02  7.614549904E+02  7.836051081E+02  1.250000000E+02  0.00000E+00  9.000E+00
      25     1     1     2     0     0  1.604728499E+01  1.161445413E+02  1.253816433E+02  2.123502445E+02  1.250000000E+02  0.00000E+00  9.000E+00
      21     1     1     2   512   501 -1.480265344E+01  2.022522793E+01 -5.682445189E+02  5.687969863E+02  0.000000000E+00  0.00000E+00  9.000E+00
#rwgt            1           1   4.1160796881059780E-002           8      119159           0
</event>
<event>
      5   9999  3.79277E-02  2.10608E+01 -1.00000E+00  1.64538E-01
      21    -1     0     0   511   501  0.000000000E+00  0.000000000E+00  5.015188577E+01  5.015188577E+01  0.000000000E+00  0.00000E+00  9.000E+00
      21    -1     0     0   501   502  0.000000000E+00  0.000000000E+00 -7.292628530E+02  7.292628530E+02  0.000000000E+00  0.00000E+00  9.000E+00
      25     1     1     2     0     0  9.841919841E+01 -5.160109169E+01 -5.005055961E+02  5.277119129E+02  1.250000000E+02  0.00000E+00  9.000E+00
      25     1     1     2     0     0 -8.325776488E+01  3.698296658E+01 -1.448169037E+02  2.118880148E+02  1.250000000E+02  0.00000E+00  9.000E+00
      21     1     1     2   511   502 -1.516143353E+01  1.461812510E+01 -3.378846747E+01  3.981481109E+01  0.000000000E+00  0.00000E+00  9.000E+00
#rwgt            1           1   3.5940653895418340E-002           8      119297           0
</event>
<event>
      5   9999  3.79277E-02  8.64147E+00 -1.00000E+00  2.03385E-01
      21    -1     0     0   502   512  0.000000000E+00  0.000000000E+00  7.369788645E+01  7.369788645E+01  0.000000000E+00  0.00000E+00  9.000E+00
      21    -1     0     0   501   502  0.000000000E+00  0.000000000E+00 -7.921418374E+02  7.921418374E+02  0.000000000E+00  0.00000E+00  9.000E+00
      25     1     1     2     0     0  1.483816127E+02  1.420974982E+02 -3.493243496E+02  4.241005815E+02  1.250000000E+02  0.00000E+00  9.000E+00
      25     1     1     2     0     0 -1.426742345E+02 -1.356089849E+02 -3.617184607E+02  4.303614513E+02  1.250000000E+02  0.00000E+00  9.000E+00
      21     1     1     2   501   512 -5.707378143E+00 -6.488513357E+00 -7.401140621E+00  1.137769104E+01  1.685873940E-07  0.00000E+00  9.000E+00
#rwgt            1           1   3.5723204850063257E-002           8      119513           0
</event>
<event>
      5   9999  3.79277E-02  1.44753E+02 -1.00000E+00  1.17010E-01
      21    -1     0     0   502   501  0.000000000E+00  0.000000000E+00  5.230562922E+02  5.230562922E+02  0.000000000E+00  0.00000E+00  9.000E+00
      21    -1     0     0   501   511  0.000000000E+00  0.000000000E+00 -2.697404716E+02  2.697404716E+02  0.000000000E+00  0.00000E+00  9.000E+00
      25     1     1     2     0     0 -1.864981276E+02 -9.855009678E+00  4.964695537E+01  2.301488497E+02  1.250000000E+02  0.00000E+00  9.000E+00
      25     1     1     2     0     0  3.244957790E+02 -3.385051986E+01  2.261091932E+02  4.161655145E+02  1.250000000E+02  0.00000E+00  9.000E+00
      21     1     1     2   502   511 -1.379976513E+02  4.370552954E+01 -2.244032798E+01  1.464823996E+02  3.363307948E-06  0.00000E+00  9.000E+00
#rwgt            1           1  0.16349111404211977                8      119847           0
</event>
<event>
      5   9999  3.79277E-02  7.85747E+01 -1.00000E+00  1.28729E-01
       2    -1     0     0   502     0  0.000000000E+00  0.000000000E+00  5.164021301E+02  5.164021301E+02  0.000000000E+00  0.00000E+00  9.000E+00
      21    -1     0     0   501   502  0.000000000E+00  0.000000000E+00 -2.131551626E+02  2.131551626E+02  0.000000000E+00  0.00000E+00  9.000E+00
      25     1     1     2     0     0  2.018724900E+02 -7.798633230E+01 -1.527179507E+01  2.503848996E+02  1.250000000E+02  0.00000E+00  9.000E+00
      25     1     1     2     0     0 -1.271006322E+02  1.021347436E+02  6.767827984E+01  2.163132592E+02  1.250000000E+02  0.00000E+00  9.000E+00
       2     1     1     2   501     0 -7.477185781E+01 -2.414841128E+01  2.508404827E+02  2.628591339E+02  5.394796609E-06  0.00000E+00  9.000E+00
#rwgt            1           1   3.8859064948971726E-002           8      119962           0
</event>
<event>
      5   9999  3.79277E-02  2.61656E+01 -1.00000E+00  1.57283E-01
      21    -1     0     0   502   511  0.000000000E+00  0.000000000E+00  1.772086501E+02  1.772086501E+02  0.000000000E+00  0.00000E+00  9.000E+00
      21    -1     0     0   501   502  0.000000000E+00  0.000000000E+00 -3.012240491E+02  3.012240491E+02  0.000000000E+00  0.00000E+00  9.000E+00
      25     1     1     2     0     0 -9.829934604E+00 -4.862701689E+01 -9.193559542E+01  1.629060100E+02  1.250000000E+02  0.00000E+00  9.000E+00
      25     1     1     2     0     0 -4.432719572E+00  7.056358858E+01 -1.423430432E+02  2.022014119E+02  1.250000000E+02  0.00000E+00  9.000E+00
      21     1     1     2   501   511  1.426265418E+01 -2.193657170E+01  1.102632395E+02  1.133252773E+02  1.348699152E-06  0.00000E+00  9.000E+00
#rwgt            1           1   3.6643740508754116E-002           8      120061           0
</event>
<event>
      5   9999  3.79277E-02  7.85875E+01 -1.00000E+00  1.28725E-01
      21    -1     0     0   502   501  0.000000000E+00  0.000000000E+00  1.063445658E+02  1.063445658E+02  0.000000000E+00  0.00000E+00  9.000E+00
      21    -1     0     0   512   502  0.000000000E+00  0.000000000E+00 -9.468763278E+02  9.468763278E+02  0.000000000E+00  0.00000E+00  9.000E+00
      25     1     1     2     0     0 -9.644545897E+01  7.723409169E+01 -7.266214736E+01  1.901883780E+02  1.250000000E+02  0.00000E+00  9.000E+00
      25     1     1     2     0     0  1.785981106E+01 -7.668880159E+01 -7.492707398E+01  1.656478541E+02  1.250000000E+02  0.00000E+00  9.000E+00
      21     1     1     2   512   501  7.858564791E+01 -5.452900953E-01 -6.929425407E+02  6.973846615E+02  7.629394531E-06  0.00000E+00  9.000E+00
#rwgt            1           1   3.8779367078406707E-002           8      120220           0
</event>
<event>
      5   9999  3.79277E-02  2.59094E+01 -1.00000E+00  1.57597E-01
      21    -1     0     0   502   511  0.000000000E+00  0.000000000E+00  2.120047714E+02  2.120047714E+02  0.000000000E+00  0.00000E+00  9.000E+00
      21    -1     0     0   501   502  0.000000000E+00  0.000000000E+00 -2.322752181E+02  2.322752181E+02  0.000000000E+00  0.00000E+00  9.000E+00
      25     1     1     2     0     0 -9.044864714E+01  1.074659182E+02  8.617952690E-01  1.880309124E+02  1.250000000E+02  0.00000E+00  9.000E+00
      25     1     1     2     0     0  6.976218274E+01 -1.230661015E+02 -6.967439308E+01  2.012251191E+02  1.250000000E+02  0.00000E+00  9.000E+00
      21     1     1     2   501   511  2.068646440E+01  1.560018334E+01  4.854215108E+01  5.502395807E+01  6.743495762E-07  0.00000E+00  9.000E+00
#rwgt            1           1   2.5930077063652576E-002           8      120280           0
</event>
<event>
      5   9999  3.79277E-02  3.73136E+01 -1.00000E+00  1.46738E-01
      21    -1     0     0   512   501  0.000000000E+00  0.000000000E+00  9.622406570E+02  9.622406570E+02  0.000000000E+00  0.00000E+00  9.000E+00
      21    -1     0     0   501   502  0.000000000E+00  0.000000000E+00 -5.380684521E+01  5.380684521E+01  0.000000000E+00  0.00000E+00  9.000E+00
      25     1     1     2     0     0  1.596830169E+02  7.379974789E+01  3.230620209E+02  3.885088648E+02  1.250000000E+02  0.00000E+00  9.000E+00
      25     1     1     2     0     0 -1.224815431E+02 -7.090932443E+01  4.862442202E+02  5.216208415E+02  1.250000000E+02  0.00000E+00  9.000E+00
      21     1     1     2   512   502 -3.720147385E+01 -2.890423458E+00  9.912757074E+01  1.059177959E+02  2.336015456E-06  0.00000E+00  9.000E+00
#rwgt            1           1   3.2336923312824450E-002           8      120448           0
</event>
<event>
      5   9999 -3.79277E-02  7.44111E+01 -1.00000E+00  1.29891E-01
      21    -1     0     0   502   511  0.000000000E+00  0.000000000E+00  5.121753202E+01  5.121753202E+01  0.000000000E+00  0.00000E+00  9.000E+00
      21    -1     0     0   501   502  0.000000000E+00  0.000000000E+00 -1.395303997E+03  1.395303997E+03  0.000000000E+00  0.00000E+00  9.000E+00
      25     1     1     2     0     0  1.255687657E+02 -7.784492751E+01 -5.119422708E+02  5.472999510E+02  1.250000000E+02  0.00000E+00  9.000E+00
      25     1     1     2     0     0 -1.400816679E+02  1.508269906E+02 -7.530761160E+02  7.906454903E+02  1.250000000E+02  0.00000E+00  9.000E+00
      21     1     1     2   501   511  1.451290217E+01 -7.298206306E+01 -7.906807809E+01  1.085760877E+02  2.132480600E-06  0.00000E+00  9.000E+00
#rwgt            1           1  -5.2391954747110385E-002           8      120556           0
</event>
<event>
      5   9999  3.79277E-02  3.63981E+01 -1.00000E+00  1.47428E-01
      21    -1     0     0   512   501  0.000000000E+00  0.000000000E+00  1.377208082E+03  1.377208082E+03  0.000000000E+00  0.00000E+00  9.000E+00
      21    -1     0     0   501   502  0.000000000E+00  0.000000000E+00 -9.813666996E+01  9.813666996E+01  0.000000000E+00  0.00000E+00  9.000E+00
      25     1     1     2     0     0 -1.657580846E+02  1.572307875E+02  1.770305594E+02  3.149001145E+02  1.250000000E+02  0.00000E+00  9.000E+00
      25     1     1     2     0     0  1.784914386E+02 -1.231326961E+02  5.182980543E+02  5.755681781E+02  1.250000000E+02  0.00000E+00  9.000E+00
      21     1     1     2   512   502 -1.273335405E+01 -3.409809147E+01  5.837427981E+02  5.848764592E+02  1.525878906E-05  0.00000E+00  9.000E+00
#rwgt            1           1   3.9345911575847027E-002           8      120592           0
</event>
<event>
      5   9999  3.79277E-02  4.13731E+01 -1.00000E+00  1.43937E-01
       2    -1     0     0   502     0  0.000000000E+00  0.000000000E+00  3.760658619E+03  3.760658619E+03  0.000000000E+00  0.00000E+00  9.000E+00
      21    -1     0     0   501   502  0.000000000E+00  0.000000000E+00 -5.435726496E+01  5.435726496E+01  0.000000000E+00  0.00000E+00  9.000E+00
      25     1     1     2     0     0  7.265947164E+01  1.249861687E+02  3.779721378E+02  4.235432423E+02  1.250000000E+02  0.00000E+00  9.000E+00
      25     1     1     2     0     0 -5.697255505E+01 -1.632700684E+02  3.307209945E+02  3.935789165E+02  1.250000000E+02  0.00000E+00  9.000E+00
       2     1     1     2   501     0 -1.568691658E+01  3.828389967E+01  2.997608222E+03  2.997893725E+03  4.315837288E-05  0.00000E+00  9.000E+00
#rwgt            1           1   4.5989998276441020E-002           8      120736           0
</event>
<event>
      5   9999  3.79277E-02  9.36118E+01 -1.00000E+00  1.25131E-01
      21    -1     0     0   511   501  0.000000000E+00  0.000000000E+00  2.007200128E+02  2.007200128E+02  0.000000000E+00  0.00000E+00  9.000E+00
      21    -1     0     0   501   502  0.000000000E+00  0.000000000E+00 -5.518954478E+02  5.518954478E+02  0.000000000E+00  0.00000E+00  9.000E+00
      25     1     1     2     0     0  1.567712262E+01  2.107064264E+00  1.115980715E+02  1.683132243E+02  1.250000000E+02  0.00000E+00  9.000E+00
      25     1     1     2     0     0 -6.362919104E+01  7.829050945E+01 -4.636485784E+02  4.906863377E+02  1.250000000E+02  0.00000E+00  9.000E+00
      21     1     1     2   511   502  4.795206841E+01 -8.039757371E+01  8.750718834E-01  9.361589862E+01  1.016069088E-06  0.00000E+00  9.000E+00
#rwgt            2          11   3.1085383052847052E-003           8      120966           0
</event>
<event>
      5   9999  3.79277E-02  7.19672E+01 -1.00000E+00  1.30614E-01
      21    -1     0     0   502   512  0.000000000E+00  0.000000000E+00  1.360497303E+03  1.360497303E+03  0.000000000E+00  0.00000E+00  9.000E+00
      21    -1     0     0   501   502  0.000000000E+00  0.000000000E+00 -5.853788443E+02  5.853788443E+02  0.000000000E+00  0.00000E+00  9.000E+00
      25     1     1     2     0     0 -4.470122192E+01 -1.875653765E+02 -3.705689821E+02  4.360336457E+02  1.250000000E+02  0.00000E+00  9.000E+00
      25     1     1     2     0     0 -1.681833283E+01  1.502207367E+02 -1.279387514E+02  2.341846497E+02  1.250000000E+02  0.00000E+00  9.000E+00
      21     1     1     2   501   512  6.151955475E+01  3.734463982E+01  1.273626192E+03  1.275657852E+03  2.157918644E-05  0.00000E+00  9.000E+00
#rwgt            1           1   4.3114635307809103E-002           8      120986           0
</event>
<event>
      5   9999  3.79277E-02  1.88288E+01 -1.00000E+00  1.68561E-01
      21    -1     0     0   502   501  0.000000000E+00  0.000000000E+00  9.050710894E+02  9.050710894E+02  0.000000000E+00  0.00000E+00  9.000E+00
      21    -1     0     0   511   502  0.000000000E+00  0.000000000E+00 -2.028644272E+02  2.028644272E+02  0.000000000E+00  0.00000E+00  9.000E+00
      25     1     1     2     0     0  2.138812866E+02  7.719464121E+00  7.825205561E+02  8.208338539E+02  1.250000000E+02  0.00000E+00  9.000E+00
      25     1     1     2     0     0 -2.225088475E+02 -2.445533694E+01 -7.066810424E+01  2.659459187E+02  1.250000000E+02  0.00000E+00  9.000E+00
      21     1     1     2   511   501  8.627560963E+00  1.673587282E+01 -9.645789656E+00  2.115574402E+01  3.371747881E-07  0.00000E+00  9.000E+00
#rwgt            1           1   3.9130380824075307E-002           8      121177           0
</event>
<event>
      5   9999  3.79277E-02  5.17020E+01 -1.00000E+00  1.38251E-01
      21    -1     0     0   502   512  0.000000000E+00  0.000000000E+00  1.429051824E+03  1.429051824E+03  0.000000000E+00  0.00000E+00  9.000E+00
      21    -1     0     0   501   502  0.000000000E+00  0.000000000E+00 -4.172571615E+01  4.172571615E+01  0.000000000E+00  0.00000E+00  9.000E+00
      25     1     1     2     0     0 -6.413186506E+01 -1.435622824E+02  4.499766555E+02  4.927748122E+02  1.250000000E+02  0.00000E+00  9.000E+00
      25     1     1     2     0     0  2.342527843E+01  1.116863728E+02  3.541635303E+02  3.925294839E+02  1.250000000E+02  0.00000E+00  9.000E+00
      21     1     1     2   501   512  4.070658663E+01  3.187590958E+01  5.831859217E+02  5.854732437E+02  1.078959322E-05  0.00000E+00  9.000E+00
#rwgt            1           1   4.1577057840185380E-002           8      121450           0
</event>
<event>
      5   9999  3.79277E-02  2.55866E+01 -1.00000E+00  1.58000E-01
      21    -1     0     0   502   501  0.000000000E+00  0.000000000E+00  8.363045128E+02  8.363045128E+02  0.000000000E+00  0.00000E+00  9.000E+00
      21    -1     0     0   501   511  0.000000000E+00  0.000000000E+00 -1.024329113E+02  1.024329113E+02  0.000000000E+00  0.00000E+00  9.000E+00
      25     1     1     2     0     0  9.423835649E+01 -5.528775457E+01  5.448961890E+02  5.696265974E+02  1.250000000E+02  0.00000E+00  9.000E+00
      25     1     1     2     0     0 -7.829236882E+01  7.529780490E+01  2.517428679E+02  3.013286013E+02  1.250000000E+02  0.00000E+00  9.000E+00
      21     1     1     2   502   511 -1.594598768E+01 -2.001005033E+01 -6.276745539E+01  6.778222549E+01  1.168007728E-06  0.00000E+00  9.000E+00
#rwgt            1           1   3.8927688188204655E-002           8      121518           0
</event>
<event>
      5   9999  3.79277E-02  1.19649E+02 -1.00000E+00  1.20422E-01
       2    -1     0     0   502     0  0.000000000E+00  0.000000000E+00  1.309602208E+03  1.309602208E+03  0.000000000E+00  0.00000E+00  9.000E+00
      21    -1     0     0   501   502  0.000000000E+00  0.000000000E+00 -1.645891160E+02  1.645891160E+02  0.000000000E+00  0.00000E+00  9.000E+00
      25     1     1     2     0     0 -8.487039735E+01 -2.951312899E+00 -1.117144170E+02  1.879276605E+02  1.250000000E+02  0.00000E+00  9.000E+00
      25     1     1     2     0     0  4.092436897E+00 -8.531370129E+01  6.057810896E+02  6.244124472E+02  1.250000000E+02  0.00000E+00  9.000E+00
       2     1     1     2   501     0  8.077796045E+01  8.826501419E+01  6.509464192E+02  6.618512161E+02  0.000000000E+00  0.00000E+00  9.000E+00
#rwgt            1           1   2.5055605543318801E-002           8      121656           0
</event>
<event>
      5   9999  3.79277E-02  3.49286E+01 -1.00000E+00  1.48589E-01
      21    -1     0     0   502   501  0.000000000E+00  0.000000000E+00  1.915760993E+02  1.915760993E+02  0.000000000E+00  0.00000E+00  9.000E+00
      21    -1     0     0   501   511  0.000000000E+00  0.000000000E+00 -3.510916803E+02  3.510916803E+02  0.000000000E+00  0.00000E+00  9.000E+00
      25     1     1     2     0     0  2.122400753E+02  3.651020367E+01 -1.886915726E+01  2.497196221E+02  1.250000000E+02  0.00000E+00  9.000E+00
      25     1     1     2     0     0 -1.778090911E+02 -4.238491568E+01 -1.281498724E+02  2.558514095E+02  1.250000000E+02  0.00000E+00  9.000E+00
      21     1     1     2   502   511 -3.443098421E+01  5.874712011E+00 -1.249655144E+01  3.709674801E+01  6.529361695E-07  0.00000E+00  9.000E+00
#rwgt            1           1   4.7717451673095469E-002           8      121731           0
</event>
<event>
      5   9999  3.79277E-02  6.15971E+01 -1.00000E+00  1.34097E-01
      21    -1     0     0   502   501  0.000000000E+00  0.000000000E+00  8.077625736E+01  8.077625736E+01  0.000000000E+00  0.00000E+00  9.000E+00
      21    -1     0     0   501   512  0.000000000E+00  0.000000000E+00 -7.192886248E+02  7.192886248E+02  0.000000000E+00  0.00000E+00  9.000E+00
      25     1     1     2     0     0 -6.290346111E+01  1.717989033E+02 -2.828600472E+02  3.593139503E+02  1.250000000E+02  0.00000E+00  9.000E+00
      25     1     1     2     0     0  4.508629983E+00 -1.521966794E+02 -2.480085199E+02  3.167291949E+02  1.250000000E+02  0.00000E+00  9.000E+00
      21     1     1     2   502   512  5.839483113E+01 -1.960222392E+01 -1.076438003E+02  1.240217369E+02  0.000000000E+00  0.00000E+00  9.000E+00
#rwgt            1           1   3.3651024624590090E-002           8      121898           0
</event>
<event>
      5   9999  3.79277E-02  3.97701E+01 -1.00000E+00  1.44996E-01
      -4    -1     0     0     0   501  0.000000000E+00  0.000000000E+00  4.195607061E+02  4.195607061E+02  0.000000000E+00  0.00000E+00  9.000E+00
      21    -1     0     0   501   502  0.000000000E+00  0.000000000E+00 -6.491011203E+02  6.491011203E+02  0.000000000E+00  0.00000E+00  9.000E+00
      25     1     1     2     0     0 -2.024892994E+01  1.341665849E+02 -4.070451268E+01  1.889247178E+02  1.250000000E+02  0.00000E+00  9.000E+00
      25     1     1     2     0     0  1.435398777E+01 -1.734973186E+02 -5.115241478E+02  5.546073479E+02  1.250000000E+02  0.00000E+00  9.000E+00
      -4     1     1     2     0   502  5.894942162E+00  3.933073371E+01  3.226882463E+02  3.251297607E+02  3.814697266E-06  0.00000E+00  9.000E+00
#rwgt            1           1   4.3159696051658446E-002           8      122004           0
</event>
<event>
      5   9999  3.79277E-02  1.60618E+01 -1.00000E+00  1.74630E-01
      21    -1     0     0   502   501  0.000000000E+00  0.000000000E+00  1.772553764E+02  1.772553764E+02  0.000000000E+00  0.00000E+00  9.000E+00
      21    -1     0     0   511   502  0.000000000E+00  0.000000000E+00 -4.701640847E+02  4.701640847E+02  0.000000000E+00  0.00000E+00  9.000E+00
      25     1     1     2     0     0  7.888301730E+01  5.571004883E+01  1.121347349E+02  1.937145806E+02  1.250000000E+02  0.00000E+00  9.000E+00
      25     1     1     2     0     0 -6.818399190E+01 -6.768975978E+01 -2.354928675E+02  2.833952205E+02  1.250000000E+02  0.00000E+00  9.000E+00
      21     1     1     2   511   501 -1.069902540E+01  1.197971095E+01 -1.695505756E+02  1.703096601E+02  1.907348633E-06  0.00000E+00  9.000E+00
#rwgt            1           1   4.3785492282038027E-002           8      122098           0
</event>
<event>
      5   9999  3.79277E-02  8.01632E+01 -1.00000E+00  1.28307E-01
      21    -1     0     0   512   501  0.000000000E+00  0.000000000E+00  1.247192502E+03  1.247192502E+03  0.000000000E+00  0.00000E+00  9.000E+00
      21    -1     0     0   501   502  0.000000000E+00  0.000000000E+00 -4.094804083E+01  4.094804083E+01  0.000000000E+00  0.00000E+00  9.000E+00
      25     1     1     2     0     0  3.176802762E-01  5.865381576E+01  5.512238932E+02  5.682544777E+02  1.250000000E+02  0.00000E+00  9.000E+00
      25     1     1     2     0     0  3.165702600E+01  1.485642379E+01  1.133793408E+02  1.723448739E+02  1.250000000E+02  0.00000E+00  9.000E+00
      21     1     1     2   512   502 -3.197470627E+01 -7.351023954E+01  5.416412271E+02  5.475411912E+02  7.629394531E-06  0.00000E+00  9.000E+00
#rwgt            1           1   4.3682655630959744E-002           8      122364           0
</event>
<event>
      5   9999  3.79277E-02  2.19305E+02 -1.00000E+00  1.10210E-01
      21    -1     0     0   502   511  0.000000000E+00  0.000000000E+00  2.971905206E+03  2.971905206E+03  0.000000000E+00  0.00000E+00  9.000E+00
      21    -1     0     0   501   502  0.000000000E+00  0.000000000E+00 -4.632627693E+01  4.632627693E+01  0.000000000E+00  0.00000E+00  9.000E+00
      25     1     1     2     0     0 -2.066201362E+02  1.965638436E+02  9.928930507E+02  1.040572360E+03  1.250000000E+02  0.00000E+00  9.000E+00
      25     1     1     2     0     0  6.223996191E+00 -1.074794222E+02  4.590337639E+02  4.877781880E+02  1.250000000E+02  0.00000E+00  9.000E+00
      21     1     1     2   501   511  2.003961400E+02 -8.908442142E+01  1.473652115E+03  1.489880936E+03  2.157918644E-05  0.00000E+00  9.000E+00
#rwgt            2          11   4.8183722747619293E-004           8      122520           0
</event>
<event>
      5   9999  3.79277E-02  2.49759E+01 -1.00000E+00  1.58782E-01
      21    -1     0     0   502   512  0.000000000E+00  0.000000000E+00  1.474189370E+02  1.474189370E+02  0.000000000E+00  0.00000E+00  9.000E+00
      21    -1     0     0   501   502  0.000000000E+00  0.000000000E+00 -6.428119341E+02  6.428119341E+02  0.000000000E+00  0.00000E+00  9.000E+00
      25     1     1     2     0     0 -2.361352812E+01  3.853685034E+01 -9.079988508E+00  1.332296278E+02  1.250000000E+02  0.00000E+00  9.000E+00
      25     1     1     2     0     0 -1.150491843E+00 -4.178320886E+01 -5.620265381E+02  5.772746224E+02  1.250000000E+02  0.00000E+00  9.000E+00
      21     1     1     2   501   512  2.476401996E+01  3.246358524E+00  7.571352950E+01  7.972662089E+01  1.348699152E-06  0.00000E+00  9.000E+00
#rwgt            1           1   4.5708169106671671E-002           8      122570           0
</event>
<event>
      5   9999  3.79277E-02  3.25594E+01 -1.00000E+00  1.50611E-01
      21    -1     0     0   511   501  0.000000000E+00  0.000000000E+00  3.538006651E+02  3.538006651E+02  0.000000000E+00  0.00000E+00  9.000E+00
      21    -1     0     0   501   502  0.000000000E+00  0.000000000E+00 -4.289109710E+02  4.289109710E+02  0.000000000E+00  0.00000E+00  9.000E+00
      25     1     1     2     0     0  1.602505060E+01  3.972596683E+00 -3.790316984E+02  3.994528910E+02  1.250000000E+02  0.00000E+00  9.000E+00
      25     1     1     2     0     0  9.045968068E+00 -2.474652192E+01  6.726640774E+01  1.443744766E+02  1.250000000E+02  0.00000E+00  9.000E+00
      21     1     1     2   511   502 -2.507101867E+01  2.077392524E+01  2.366549847E+02  2.388842684E+02  4.672030912E-06  0.00000E+00  9.000E+00
#rwgt            1           1   4.6528801333518589E-002           8      122734           0
</event>
<event>
      5   9999  3.79277E-02  5.34652E+01 -1.00000E+00  1.37435E-01
      21    -1     0     0   502   501  0.000000000E+00  0.000000000E+00  1.417942405E+02  1.417942405E+02  0.000000000E+00  0.00000E+00  9.000E+00
      21    -1     0     0   501   512  0.000000000E+00  0.000000000E+00 -7.424071858E+02  7.424071858E+02  0.000000000E+00  0.00000E+00  9.000E+00
      25     1     1     2     0     0 -2.616681673E+01  1.166177879E+02 -2.566098758E+02  3.094479587E+02  1.250000000E+02  0.00000E+00  9.000E+00
      25     1     1     2     0     0 -1.951327466E+01 -1.444001822E+02  3.229201131E+01  1.946791065E+02  1.250000000E+02  0.00000E+00  9.000E+00
      21     1     1     2   502   512  4.568009139E+01  2.778239431E+01 -3.762950807E+02  3.800743611E+02  0.000000000E+00  0.00000E+00  9.000E+00
#rwgt            1           1   4.0575103147342008E-002           8      122861           0
</event>
<event>
      5   9999  3.79277E-02  6.15205E+01 -1.00000E+00  1.34125E-01
      21    -1     0     0   511   501  0.000000000E+00  0.000000000E+00  1.361773295E+02  1.361773295E+02  0.000000000E+00  0.00000E+00  9.000E+00
      21    -1     0     0   501   502  0.000000000E+00  0.000000000E+00 -7.099823838E+02  7.099823838E+02  0.000000000E+00  0.00000E+00  9.000E+00
      25     1     1     2     0     0  7.167547519E+01 -1.316697054E+02 -5.963338133E+02  6.274657775E+02  1.250000000E+02  0.00000E+00  9.000E+00
      25     1     1     2     0     0 -5.021921229E+01  7.401206473E+01  3.037186838E+01  1.566754780E+02  1.250000000E+02  0.00000E+00  9.000E+00
      21     1     1     2   511   502 -2.145626291E+01  5.765764069E+01 -7.843109364E+00  6.201845784E+01  3.475518164E-07  0.00000E+00  9.000E+00
#rwgt            1           1   3.9777904343015126E-002           8      122941           0
</event>
<event>
      5   9999  3.79277E-02  3.10579E+01 -1.00000E+00  1.52002E-01
      21    -1     0     0   512   501  0.000000000E+00  0.000000000E+00  9.137270043E+01  9.137270043E+01  0.000000000E+00  0.00000E+00  9.000E+00
      21    -1     0     0   501   502  0.000000000E+00  0.000000000E+00 -6.033360140E+02  6.033360140E+02  0.000000000E+00  0.00000E+00  9.000E+00
      25     1     1     2     0     0 -4.221264730E+01 -8.531119798E+01 -7.093001831E+01  1.723832231E+02  1.250000000E+02  0.00000E+00  9.000E+00
      25     1     1     2     0     0  5.107875558E+01  1.150767331E+02 -4.549293798E+02  4.883005574E+02  1.250000000E+02  0.00000E+00  9.000E+00
      21     1     1     2   512   502 -8.866108283E+00 -2.976553516E+01  1.389608459E+01  3.402493389E+01  3.371747881E-07  0.00000E+00  9.000E+00
#rwgt            1           1   4.8577659409310144E-002           8      123073           0
</event>
<event>
      5   9999  3.79277E-02  6.61633E+01 -1.00000E+00  1.32473E-01
      21    -1     0     0   502   501  0.000000000E+00  0.000000000E+00  3.401412434E+02  3.401412434E+02  0.000000000E+00  0.00000E+00  9.000E+00
       3    -1     0     0   501     0  0.000000000E+00  0.000000000E+00 -1.552446925E+02  1.552446925E+02  0.000000000E+00  0.00000E+00  9.000E+00
      25     1     1     2     0     0 -1.328816325E+01 -6.651326021E+01  2.513653056E+02  2.888080780E+02  1.250000000E+02  0.00000E+00  9.000E+00
      25     1     1     2     0     0  6.764941018E+00  6.722694869E-01 -6.344816912E+01  1.403455968E+02  1.250000000E+02  0.00000E+00  9.000E+00
       3     1     1     2   502     0  6.523222235E+00  6.584099072E+01 -3.020585527E+00  6.623226120E+01  1.401026162E-06  0.00000E+00  9.000E+00
#rwgt            1           1   4.4714235669559066E-002           8      123240           0
</event>
<event>
      5   9999  3.79277E-02  1.36526E+01 -1.00000E+00  1.81323E-01
      21    -1     0     0   502   511  0.000000000E+00  0.000000000E+00  3.113314642E+02  3.113314642E+02  0.000000000E+00  0.00000E+00  9.000E+00
      21    -1     0     0   501   502  0.000000000E+00  0.000000000E+00 -1.104726569E+02  1.104726569E+02  0.000000000E+00  0.00000E+00  9.000E+00
      25     1     1     2     0     0  1.142094372E+02  1.304138367E+00  8.969231746E+01  1.916121294E+02  1.250000000E+02  0.00000E+00  9.000E+00
      25     1     1     2     0     0 -1.272264920E+02  2.812916958E+00  7.869607638E+01  1.949681133E+02  1.250000000E+02  0.00000E+00  9.000E+00
      21     1     1     2   501   511  1.301705480E+01 -4.117055325E+00  3.247041347E+01  3.522387843E+01  4.768371582E-07  0.00000E+00  9.000E+00
#rwgt            1           1   1.3197626601058252E-002           8      123402           0
</event>
<event>
      5   9999  3.79277E-02  3.74812E+02 -1.00000E+00  1.02543E-01
      21    -1     0     0   502   501  0.000000000E+00  0.000000000E+00  5.017345038E+02  5.017345038E+02  0.000000000E+00  0.00000E+00  9.000E+00
      21    -1     0     0   501   512  0.000000000E+00  0.000000000E+00 -1.602588756E+03  1.602588756E+03  0.000000000E+00  0.00000E+00  9.000E+00
      25     1     1     2     0     0 -4.263803758E+02 -1.915350145E+02  3.039790105E+02  5.714141454E+02  1.250000000E+02  0.00000E+00  9.000E+00
      25     1     1     2     0     0  5.313322743E+01  1.573186165E+02 -7.513524043E+02  7.795689338E+02  1.250000000E+02  0.00000E+00  9.000E+00
      21     1     1     2   502   512  3.732471484E+02  3.421639798E+01 -6.534808582E+02  7.533401806E+02  7.629394531E-06  0.00000E+00  9.000E+00
#rwgt            2          11   1.8454636411688533E-003           8      123811           0
</event>
<event>
      5   9999  3.79277E-02  5.61279E+01 -1.00000E+00  1.36270E-01
      21    -1     0     0   511   501  0.000000000E+00  0.000000000E+00  5.164252965E+02  5.164252965E+02  0.000000000E+00  0.00000E+00  9.000E+00
      21    -1     0     0   501   502  0.000000000E+00  0.000000000E+00 -2.823480795E+02  2.823480795E+02  0.000000000E+00  0.00000E+00  9.000E+00
      25     1     1     2     0     0  1.567211372E+02  2.476134433E+02  8.885163123E+01  3.307469494E+02  1.250000000E+02  0.00000E+00  9.000E+00
      25     1     1     2     0     0 -2.062068538E+02 -2.740992928E+02  6.608664752E+01  3.710042235E+02  1.250000000E+02  0.00000E+00  9.000E+00
      21     1     1     2   511   502  4.948571657E+01  2.648584952E+01  7.913893825E+01  9.702220321E+01  1.348699152E-06  0.00000E+00  9.000E+00
#rwgt            1           1   3.5419759955482973E-002           8      123846           0
</event>
<event>
      5   9999  3.79277E-02  1.22300E+01 -1.00000E+00  1.86165E-01
      21    -1     0     0   502   501  0.000000000E+00  0.000000000E+00  7.735539887E+02  7.735539887E+02  0.000000000E+00  0.00000E+00  9.000E+00
      -1    -1     0     0     0   502  0.000000000E+00  0.000000000E+00 -8.356730506E+02  8.356730506E+02  0.000000000E+00  0.00000E+00  9.000E+00
      25     1     1     2     0     0 -1.118172163E+02  8.827591882E+01  6.767644502E+02  7.028021405E+02  1.250000000E+02  0.00000E+00  9.000E+00
      25     1     1     2     0     0  1.032061658E+02 -9.696050848E+01 -2.282267862E+01  1.902596319E+02  1.250000000E+02  0.00000E+00  9.000E+00
      -1     1     1     2     0   501  8.611050484E+00  8.684589662E+00 -7.160608335E+02  7.161652669E+02  1.078959322E-05  0.00000E+00  9.000E+00
#rwgt            1           1   4.4051757778731229E-002           8      123914           0
</event>
<event>
      5   9999  3.79277E-02  9.12154E+01 -1.00000E+00  1.25651E-01
      21    -1     0     0   502   501  0.000000000E+00  0.000000000E+00  4.311273619E+02  4.311273619E+02  0.000000000E+00  0.00000E+00  9.000E+00
      21    -1     0     0   511   502  0.000000000E+00  0.000000000E+00 -8.271829922E+02  8.271829922E+02  0.000000000E+00  0.00000E+00  9.000E+00
      25     1     1     2     0     0  5.069478662E+01 -5.378167342E+02 -2.550140395E+02  6.103064487E+02  1.250000000E+02  0.00000E+00  9.000E+00
      25     1     1     2     0     0  2.713126308E+01  4.902419488E+02 -3.461280542E+01  5.078349339E+02  1.250000000E+02  0.00000E+00  9.000E+00
      21     1     1     2   511   501 -7.782604970E+01  4.757478543E+01 -1.064287855E+02  1.401689716E+02  0.000000000E+00  0.00000E+00  9.000E+00
#rwgt            1           1  0.10570070893182099                8      124177           0
</event>
<event>
      5   9999  3.79277E-02  3.74684E+01 -1.00000E+00  1.46623E-01
      21    -1     0     0   502   501  0.000000000E+00  0.000000000E+00  2.785829261E+02  2.785829261E+02  0.000000000E+00  0.00000E+00  9.000E+00
      21    -1     0     0   501   512  0.000000000E+00  0.000000000E+00 -1.348736335E+02  1.348736335E+02  0.000000000E+00  0.00000E+00  9.000E+00
      25     1     1     2     0     0  1.468317576E+01 -7.915532399E+01 -1.825200747E+01  1.497975191E+02  1.250000000E+02  0.00000E+00  9.000E+00
      25     1     1     2     0     0 -4.687317257E+01  9.833049790E+01  1.518940814E+02  2.248617200E+02  1.250000000E+02  0.00000E+00  9.000E+00
      21     1     1     2   502   512  3.218999681E+01 -1.917517391E+01  1.006721858E+01  3.879732052E+01  2.384185791E-07  0.00000E+00  9.000E+00
#rwgt            1           1   5.1071717752914081E-002           8      124375           0
</event>
<event>
      5   9999  3.79277E-02  4.28325E+01 -1.00000E+00  1.43021E-01
      21    -1     0     0   502   501  0.000000000E+00  0.000000000E+00  7.961229649E+01  7.961229649E+01  0.000000000E+00  0.00000E+00  9.000E+00
      21    -1     0     0   501   511  0.000000000E+00  0.000000000E+00 -8.780132979E+02  8.780132979E+02  0.000000000E+00  0.00000E+00  9.000E+00
      25     1     1     2     0     0  1.028522066E+02 -1.315944163E+02 -5.821088225E+02  6.183618261E+02  1.250000000E+02  0.00000E+00  9.000E+00
      25     1     1     2     0     0 -1.232285879E+02  9.391913571E+01 -1.164777105E+02  2.306472327E+02  1.250000000E+02  0.00000E+00  9.000E+00
      21     1     1     2   502   511  2.037638128E+01  3.767528054E+01 -9.981446846E+01  1.086165355E+02  1.907348633E-06  0.00000E+00  9.000E+00
#rwgt            1           1   4.3068230696361495E-002           8      124492           0
</event>
<event>
      5   9999  3.79277E-02  8.83998E+01 -1.00000E+00  1.26285E-01
      21    -1     0     0   502   512  0.000000000E+00  0.000000000E+00  2.381058035E+02  2.381058035E+02  0.000000000E+00  0.00000E+00  9.000E+00
      21    -1     0     0   501   502  0.000000000E+00  0.000000000E+00 -3.098998222E+02  3.098998222E+02  0.000000000E+00  0.00000E+00  9.000E+00
      25     1     1     2     0     0  5.661062808E+01 -5.517453901E+01 -2.128404922E+02  2.591815350E+02  1.250000000E+02  0.00000E+00  9.000E+00
      25     1     1     2     0     0 -8.813733526E+01 -2.741232209E+01  1.239948944E+02  1.987947663E+02  1.250000000E+02  0.00000E+00  9.000E+00
      21     1     1     2   501   512  3.152670718E+01  8.258686110E+01  1.705157910E+01  9.002932435E+01  0.000000000E+00  0.00000E+00  9.000E+00
#rwgt            1           1   2.9286038925129015E-002           8      124558           0
</event>
<event>
      5   9999  3.79277E-02  2.61033E+01 -1.00000E+00  1.57359E-01
       2    -1     0     0   502     0  0.000000000E+00  0.000000000E+00  2.300118241E+03  2.300118241E+03  0.000000000E+00  0.00000E+00  9.000E+00
      21    -1     0     0   501   502  0.000000000E+00  0.000000000E+00 -2.978040087E+01  2.978040087E+01  0.000000000E+00  0.00000E+00  9.000E+00
      25     1     1     2     0     0  5.915181808E+01 -1.759595720E+02  8.809034492E+02  9.088875592E+02  1.250000000E+02  0.00000E+00  9.000E+00
      25     1     1     2     0     0 -6.967717837E+01  1.998468253E+02  9.663206746E+02  9.970929289E+02  1.250000000E+02  0.00000E+00  9.000E+00
       2     1     1     2   501     0  1.052536029E+01 -2.388725329E+01  4.231137168E+02  4.239181541E+02  5.394796609E-06  0.00000E+00  9.000E+00
#rwgt            1           1   2.7194149415482989E-002           8      124664           0
</event>
<event>
      5   9999  3.79277E-02  2.04065E+01 -1.00000E+00  1.65651E-01
      21    -1     0     0   502   511  0.000000000E+00  0.000000000E+00  1.152520574E+02  1.152520574E+02  0.000000000E+00  0.00000E+00  9.000E+00
      21    -1     0     0   501   502  0.000000000E+00  0.000000000E+00 -3.772820853E+02  3.772820853E+02  0.000000000E+00  0.00000E+00  9.000E+00
      25     1     1     2     0     0  9.111477931E+00 -1.488748247E+02 -1.674966812E+02  2.567622843E+02  1.250000000E+02  0.00000E+00  9.000E+00
      25     1     1     2     0     0  1.013473132E+01  1.420917637E+02 -1.004903621E+02  2.145136242E+02  1.250000000E+02  0.00000E+00  9.000E+00
      21     1     1     2   501   511 -1.924620925E+01  6.783060991E+00  5.957015386E+00  2.125823415E+01  1.460009660E-07  0.00000E+00  9.000E+00
#rwgt            1           1   3.2034433024380360E-002           8      124767           0
</event>
<event>
      5   9999  3.79277E-02  6.62143E+01 -1.00000E+00  1.32455E-01
      21    -1     0     0   502   501  0.000000000E+00  0.000000000E+00  3.904145039E+02  3.904145039E+02  0.000000000E+00  0.00000E+00  9.000E+00
       2    -1     0     0   501     0  0.000000000E+00  0.000000000E+00 -1.947157047E+03  1.947157047E+03  0.000000000E+00  0.00000E+00  9.000E+00
      25     1     1     2     0     0 -1.163559141E+01  1.639912853E+02  7.236955451E+01  2.188398525E+02  1.250000000E+02  0.00000E+00  9.000E+00
      25     1     1     2     0     0 -3.463626018E+01 -1.166283887E+02  2.130673932E+02  2.753626075E+02  1.250000000E+02  0.00000E+00  9.000E+00
       2     1     1     2   502     0  4.627185158E+01 -4.736289654E+01 -1.842179491E+03  1.843369091E+03  3.051757812E-05  0.00000E+00  9.000E+00
#rwgt            1           1   3.7295364154192212E-002           8      124952           0
</event>
<event>
      5   9999  3.79277E-02  9.76750E+01 -1.00000E+00  1.24289E-01
       1    -1     0     0   502     0  0.000000000E+00  0.000000000E+00  9.045932024E+02  9.045932024E+02  0.000000000E+00  0.00000E+00  9.000E+00
      21    -1     0     0   501   502  0.000000000E+00  0.000000000E+00 -5.056410666E+01  5.056410666E+01  0.000000000E+00  0.00000E+00  9.000E+00
      25     1     1     2     0     0 -1.169361858E+01 -5.798447023E+01  1.666513391E+02  2.165562475E+02  1.250000000E+02  0.00000E+00  9.000E+00
      25     1     1     2     0     0  1.083163070E+02  4.368549952E+01  3.988887761E+02  4.340254611E+02  1.250000000E+02  0.00000E+00  9.000E+00
       1     1     1     2   501     0 -9.662268840E+01  1.429897071E+01  2.884889806E+02  3.045756004E+02  0.000000000E+00  0.00000E+00  9.000E+00
#rwgt            1           1   6.8930303001255758E-002           8      125052           0
</event>
<event>
      5   9999  3.79277E-02  1.69326E+02 -1.00000E+00  1.14345E-01
       2    -1     0     0   502     0  0.000000000E+00  0.000000000E+00  1.694597008E+03  1.694597008E+03  0.000000000E+00  0.00000E+00  9.000E+00
      21    -1     0     0   501   502  0.000000000E+00  0.000000000E+00 -6.991903733E+02  6.991903733E+02  0.000000000E+00  0.00000E+00  9.000E+00
      25     1     1     2     0     0  1.057519677E+02 -3.267154813E+02  7.235048931E+01  3.725400350E+02  1.250000000E+02  0.00000E+00  9.000E+00
      25     1     1     2     0     0 -2.511198277E+02  2.398854089E+02 -4.814053640E+02  6.066154480E+02  1.250000000E+02  0.00000E+00  9.000E+00
       2     1     1     2   501     0  1.453678600E+02  8.683007245E+01  1.404461509E+03  1.414631898E+03  1.525878906E-05  0.00000E+00  9.000E+00
#rwgt            1           1   3.1372367071628778E-002           8      125209           0
</event>
<event>
      5   9999  3.79277E-02  5.04585E+01 -1.00000E+00  1.38850E-01
      21    -1     0     0   502   511  0.000000000E+00  0.000000000E+00  2.123403380E+02  2.123403380E+02  0.000000000E+00  0.00000E+00  9.000E+00
      21    -1     0     0   501   502  0.000000000E+00  0.000000000E+00 -2.096716335E+02  2.096716335E+02  0.000000000E+00  0.00000E+00  9.000E+00
      25     1     1     2     0     0  1.135234650E+02  1.261775941E+01 -5.489825508E+01  1.780045038E+02  1.250000000E+02  0.00000E+00  9.000E+00
      25     1     1     2     0     0 -1.071972742E+02  3.744263803E+01  1.912260676E+00  1.688841718E+02  1.250000000E+02  0.00000E+00  9.000E+00
      21     1     1     2   501   511 -6.326190796E+00 -5.006039743E+01  5.565469895E+01  7.512329597E+01  6.743495762E-07  0.00000E+00  9.000E+00
#rwgt            1           1   4.6803458597600982E-002           8      125265           0
</event>
<event>
      5   9999  3.79277E-02  4.99198E+01 -1.00000E+00  1.39115E-01
      21    -1     0     0   512   501  0.000000000E+00  0.000000000E+00  9.212049849E+02  9.212049849E+02  0.000000000E+00  0.00000E+00  9.000E+00
      21    -1     0     0   501   502  0.000000000E+00  0.000000000E+00 -1.518985210E+02  1.518985210E+02  0.000000000E+00  0.00000E+00  9.000E+00
      25     1     1     2     0     0  2.619883311E+02 -1.205524231E+02  1.675431618E+02  3.561832161E+02  1.250000000E+02  0.00000E+00  9.000E+00
      25     1     1     2     0     0 -2.933134194E+02  8.168436672E+01  4.525760103E+02  5.596026652E+02  1.250000000E+02  0.00000E+00  9.000E+00
      21     1     1     2   512   502  3.132508827E+01  3.886805641E+01  1.491872918E+02  1.573176246E+02  2.697398305E-06  0.00000E+00  9.000E+00
#rwgt            1           1  0.12399705757131968                8      125500           0
</event>
<event>
      5   9999  3.79277E-02  4.20681E+01 -1.00000E+00  1.43495E-01
      21    -1     0     0   502   501  0.000000000E+00  0.000000000E+00  1.645089499E+02  1.645089499E+02  0.000000000E+00  0.00000E+00  9.000E+00
      21    -1     0     0   501   511  0.000000000E+00  0.000000000E+00 -4.472541271E+02  4.472541271E+02  0.000000000E+00  0.00000E+00  9.000E+00
      25     1     1     2     0     0  1.275720122E+02 -5.378397382E+01 -1.468938296E+02  2.374239485E+02  1.250000000E+02  0.00000E+00  9.000E+00
      25     1     1     2     0     0 -1.533243270E+02  2.051922878E+01  3.187202674E+01  2.014204907E+02  1.250000000E+02  0.00000E+00  9.000E+00
      21     1     1     2   502   511  2.575231481E+01  3.326474503E+01 -1.677233744E+02  1.729186378E+02  1.907348633E-06  0.00000E+00  9.000E+00
#rwgt            2          11   8.8734543237972718E-004           8      125695           0
</event>
<event>
      5   9999  3.79277E-02  7.27256E+01 -1.00000E+00  1.30386E-01
       2    -1     0     0   502     0  0.000000000E+00  0.000000000E+00  2.736735893E+03  2.736735893E+03  0.000000000E+00  0.00000E+00  9.000E+00
      21    -1     0     0   501   502  0.000000000E+00  0.000000000E+00 -3.609107734E+01  3.609107734E+01  0.000000000E+00  0.00000E+00  9.000E+00
      25     1     1     2     0     0  9.442512390E+01  8.636354353E+01  2.212802934E+02  2.845430265E+02  1.250000000E+02  0.00000E+00  9.000E+00
      25     1     1     2     0     0 -3.773333127E+01 -4.081071016E+01  1.728942886E+03  1.734346512E+03  1.250000000E+02  0.00000E+00  9.000E+00
       2     1     1     2   501     0 -5.669179263E+01 -4.555283337E+01  7.504216362E+02  7.539374325E+02  1.525878906E-05  0.00000E+00  9.000E+00
#rwgt            1           1  0.12104693449360847                8      125850           0
</event>
<event>
      5   9999  3.79277E-02  1.93427E+01 -1.00000E+00  1.67575E-01
      21    -1     0     0   511   501  0.000000000E+00  0.000000000E+00  1.311691906E+02  1.311691906E+02  0.000000000E+00  0.00000E+00  9.000E+00
      21    -1     0     0   501   502  0.000000000E+00  0.000000000E+00 -8.633870787E+02  8.633870787E+02  0.000000000E+00  0.00000E+00  9.000E+00
      25     1     1     2     0     0 -1.810480935E+02 -9.577592309E+01 -6.936684045E+02  7.339974762E+02  1.250000000E+02  0.00000E+00  9.000E+00
      25     1     1     2     0     0  1.689970832E+02  1.109058612E+02 -4.059560981E+01  2.411081245E+02  1.250000000E+02  0.00000E+00  9.000E+00
      21     1     1     2   511   502  1.205101038E+01 -1.512993812E+01  2.046126222E+00  1.945066866E+01  3.039252468E-07  0.00000E+00  9.000E+00
#rwgt            2          11   6.7666378758732739E-003           8      125921           0
</event>
<event>
      5   9999  3.79277E-02  2.57492E+02 -1.00000E+00  1.07794E-01
      21    -1     0     0   502   501  0.000000000E+00  0.000000000E+00  5.269104665E+02  5.269104665E+02  0.000000000E+00  0.00000E+00  9.000E+00
       1    -1     0     0   501     0  0.000000000E+00  0.000000000E+00 -2.344660567E+03  2.344660567E+03  0.000000000E+00  0.00000E+00  9.000E+00
      25     1     1     2     0     0 -2.871569585E-01 -3.494405918E+02  2.118031094E+02  4.273106210E+02  1.250000000E+02  0.00000E+00  9.000E+00
      25     1     1     2     0     0 -1.853978073E+01  9.263740244E+01  1.691278761E+02  2.305529229E+02  1.250000000E+02  0.00000E+00  9.000E+00
       1     1     1     2   502     0  1.882693769E+01  2.568031893E+02 -2.198681086E+03  2.213707490E+03  3.051757812E-05  0.00000E+00  9.000E+00
#rwgt            2          12   2.9978777919043181E-003           8      125941           0
</event>
<event>
      5   9999  3.79277E-02  6.85398E+01 -1.00000E+00  1.31686E-01
      21    -1     0     0   502   501  0.000000000E+00  0.000000000E+00  1.752838533E+02  1.752838533E+02  0.000000000E+00  0.00000E+00  9.000E+00
      21    -1     0     0   511   502  0.000000000E+00  0.000000000E+00 -9.533346830E+02  9.533346830E+02  0.000000000E+00  0.00000E+00  9.000E+00
      25     1     1     2     0     0  1.822310197E+02  1.560391897E+01 -5.504349136E+01  2.282682912E+02  1.250000000E+02  0.00000E+00  9.000E+00
      25     1     1     2     0     0 -2.333276364E+02  3.007802400E+01 -1.178222953E+02  2.912963554E+02  1.250000000E+02  0.00000E+00  9.000E+00
      21     1     1     2   511   501  5.109661670E+01 -4.568194297E+01 -6.051850431E+02  6.090538897E+02  7.629394531E-06  0.00000E+00  9.000E+00
#rwgt            1           1   4.0155612760018639E-002           8      126035           0
</event>
<event>
      5   9999 -3.79277E-02  4.37777E+01 -1.00000E+00  1.42451E-01
      21    -1     0     0   502   501  0.000000000E+00  0.000000000E+00  5.753957868E+01  5.753957868E+01  0.000000000E+00  0.00000E+00  9.000E+00
       2    -1     0     0   501     0  0.000000000E+00  0.000000000E+00 -1.836012775E+03  1.836012775E+03  0.000000000E+00  0.00000E+00  9.000E+00
      25     1     1     2     0     0  2.742927721E+01 -1.649695521E+02 -5.020916506E+02  5.437723274E+02  1.250000000E+02  0.00000E+00  9.000E+00
      25     1     1     2     0     0 -2.610460959E+01  1.212119452E+02 -1.774421393E+02  2.499689962E+02  1.250000000E+02  0.00000E+00  9.000E+00
       2     1     1     2   502     0 -1.324667622E+00  4.375760692E+01 -1.098939407E+03  1.099811030E+03  0.000000000E+00  0.00000E+00  9.000E+00
#rwgt            1           1 -0.12747504191935471                8      126269           0
</event>
<event>
      5   9999  3.79277E-02  1.09974E+02 -1.00000E+00  1.21999E-01
      21    -1     0     0   502   511  0.000000000E+00  0.000000000E+00  3.022790196E+02  3.022790196E+02  0.000000000E+00  0.00000E+00  9.000E+00
      21    -1     0     0   501   502  0.000000000E+00  0.000000000E+00 -4.420559878E+02  4.420559878E+02  0.000000000E+00  0.00000E+00  9.000E+00
      25     1     1     2     0     0 -5.846203212E+01  1.742627671E+02 -2.153910844E+02  3.095216317E+02  1.250000000E+02  0.00000E+00  9.000E+00
      25     1     1     2     0     0  1.124756439E+02 -2.700586319E+02  5.992161108E+01  3.237252455E+02  1.250000000E+02  0.00000E+00  9.000E+00
      21     1     1     2   501   511 -5.401361174E+01  9.579586475E+01  1.569250512E+01  1.110881302E+02  2.348150683E-06  0.00000E+00  9.000E+00
#rwgt            2          11   3.2901900929769305E-003           8      126579           0
</event>
<event>
      5   9999  3.79277E-02  2.57111E+01 -1.00000E+00  1.57844E-01
      21    -1     0     0   512   501  0.000000000E+00  0.000000000E+00  6.753151135E+01  6.753151135E+01  0.000000000E+00  0.00000E+00  9.000E+00
      21    -1     0     0   501   502  0.000000000E+00  0.000000000E+00 -1.077952586E+03  1.077952586E+03  0.000000000E+00  0.00000E+00  9.000E+00
      25     1     1     2     0     0 -1.242309692E+02  1.021054256E+02 -2.185790273E+02  2.987651969E+02  1.250000000E+02  0.00000E+00  9.000E+00
      25     1     1     2     0     0  1.354406555E+02 -1.252441797E+02 -7.901297814E+02  8.209508799E+02  1.250000000E+02  0.00000E+00  9.000E+00
      21     1     1     2   512   502 -1.120968626E+01  2.313875411E+01 -1.712265428E+00  2.576802012E+01  6.254938800E-07  0.00000E+00  9.000E+00
#rwgt            1           1   2.5087716157459007E-002           8      126614           0
</event>
<event>
      5   9999  3.79277E-02  9.34193E+01 -1.00000E+00  1.25172E-01
      21    -1     0     0   502   501  0.000000000E+00  0.000000000E+00  2.990713343E+02  2.990713343E+02  0.000000000E+00  0.00000E+00  9.000E+00
       3    -1     0     0   501     0  0.000000000E+00  0.000000000E+00 -9.273230563E+02  9.273230563E+02  0.000000000E+00  0.00000E+00  9.000E+00
      25     1     1     2     0     0 -7.826089462E+01  7.186096175E+01 -1.389654512E+02  2.150003769E+02  1.250000000E+02  0.00000E+00  9.000E+00
      25     1     1     2     0     0  1.006771341E+02 -1.625509427E+02  2.073578203E+02  3.085141163E+02  1.250000000E+02  0.00000E+00  9.000E+00
       3     1     1     2   502     0 -2.241623953E+01  9.068998098E+01 -6.966440912E+02  7.028798974E+02  1.078959322E-05  0.00000E+00  9.000E+00
#rwgt            1           1   3.9698965281927283E-002           8      126778           0
</event>
<event>
      5   9999  3.79277E-02  1.12535E+01 -1.00000E+00  1.90009E-01
      21    -1     0     0   502   501  0.000000000E+00  0.000000000E+00  1.141536809E+03  1.141536809E+03  0.000000000E+00  0.00000E+00  9.000E+00
      21    -1     0     0   501   511  0.000000000E+00  0.000000000E+00 -2.756976230E+01  2.756976230E+01  0.000000000E+00  0.00000E+00  9.000E+00
      25     1     1     2     0     0  1.063626379E+01  1.025291230E+02  5.459271863E+02  5.694618898E+02  1.250000000E+02  0.00000E+00  9.000E+00
      25     1     1     2     0     0 -1.664162038E+01 -1.120463171E+02  5.622070145E+02  5.869693756E+02  1.250000000E+02  0.00000E+00  9.000E+00
      21     1     1     2   502   511  6.005356593E+00  9.517194101E+00  5.832846017E+00  1.267530607E+01  1.884864366E-07  0.00000E+00  9.000E+00
#rwgt            1           1   3.6858137041938695E-002           8      126879           0
</event>
<event>
      5   9999  3.79277E-02  1.24621E+02 -1.00000E+00  1.19676E-01
      21    -1     0     0   502   512  0.000000000E+00  0.000000000E+00  4.603666283E+02  4.603666283E+02  0.000000000E+00  0.00000E+00  9.000E+00
      21    -1     0     0   501   502  0.000000000E+00  0.000000000E+00 -2.522729449E+02  2.522729449E+02  0.000000000E+00  0.00000E+00  9.000E+00
      25     1     1     2     0     0 -9.256196291E+01  1.441905695E+02  2.398143016E+00  2.121070211E+02  1.250000000E+02  0.00000E+00  9.000E+00
      25     1     1     2     0     0  2.098440909E+02 -1.020556314E+02  5.567860012E+00  2.647751790E+02  1.250000000E+02  0.00000E+00  9.000E+00
      21     1     1     2   501   512 -1.172821280E+02 -4.213493810E+01  2.001276803E+02  2.357573731E+02  0.000000000E+00  0.00000E+00  9.000E+00
#rwgt            1           1   3.3308642231573142E-002           8      127154           0
</event>
<event>
      5   9999  3.79277E-02  1.13517E+02 -1.00000E+00  1.21401E-01
      21    -1     0     0   502   511  0.000000000E+00  0.000000000E+00  9.190297477E+02  9.190297477E+02  0.000000000E+00  0.00000E+00  9.000E+00
      21    -1     0     0   501   502  0.000000000E+00  0.000000000E+00 -1.906445492E+02  1.906445492E+02  0.000000000E+00  0.00000E+00  9.000E+00
      25     1     1     2     0     0 -8.017835403E+01  5.479364619E+01 -1.236523249E+02  2.008626635E+02  1.250000000E+02  0.00000E+00  9.000E+00
      25     1     1     2     0     0 -1.582906638E+01  5.776267455E+00  1.427182451E+02  1.904663280E+02  1.250000000E+02  0.00000E+00  9.000E+00
      21     1     1     2   501   511  9.600742042E+01 -6.056991364E+01  7.093192783E+02  7.183453054E+02  1.321449896E-05  0.00000E+00  9.000E+00
#rwgt            1           1   2.5897241912698390E-002           8      127229           0
</event>
<event>
      5   9999  3.79277E-02  1.74185E+02 -1.00000E+00  1.13878E-01
       1    -1     0     0   502     0  0.000000000E+00  0.000000000E+00  1.284728949E+03  1.284728949E+03  0.000000000E+00  0.00000E+00  9.000E+00
      21    -1     0     0   501   502  0.000000000E+00  0.000000000E+00 -1.672550248E+02  1.672550248E+02  0.000000000E+00  0.00000E+00  9.000E+00
      25     1     1     2     0     0 -3.806717433E+01 -6.933128264E+01  2.563137082E+02  2.959352185E+02  1.250000000E+02  0.00000E+00  9.000E+00
      25     1     1     2     0     0  1.244382130E+02  2.205939305E+02  5.138764890E+00  2.824853234E+02  1.250000000E+02  0.00000E+00  9.000E+00
       1     1     1     2   501     0 -8.637103866E+01 -1.512626479E+02  8.560214514E+02  8.735634323E+02  1.078959322E-05  0.00000E+00  9.000E+00
#rwgt            2          17   2.3682366517045622E-004           8      127360           0
</event>
<event>
      5   9999  3.79277E-02  3.02095E+02 -1.00000E+00  1.05494E-01
      21    -1     0     0   502   501  0.000000000E+00  0.000000000E+00  1.450690038E+02  1.450690038E+02  0.000000000E+00  0.00000E+00  9.000E+00
      21    -1     0     0   501   511  0.000000000E+00  0.000000000E+00 -3.205513795E+03  3.205513795E+03  0.000000000E+00  0.00000E+00  9.000E+00
      25     1     1     2     0     0  2.808693389E+02 -3.053338831E+02 -7.585413693E+02  8.735710473E+02  1.250000000E+02  0.00000E+00  9.000E+00
      25     1     1     2     0     0 -5.606713996E+02  1.914393053E+02 -1.383463562E+03  1.510164843E+03  1.250000000E+02  0.00000E+00  9.000E+00
      21     1     1     2   502   511  2.798020607E+02  1.138945778E+02 -9.184398607E+02  9.668469092E+02  1.525878906E-05  0.00000E+00  9.000E+00
#rwgt            1           1  0.10359595130269142                8      127409           0
</event>
<event>
      5   9999  3.79277E-02  1.64225E+02 -1.00000E+00  1.14855E-01
       2    -1     0     0   502     0  0.000000000E+00  0.000000000E+00  1.941428344E+03  1.941428344E+03  0.000000000E+00  0.00000E+00  9.000E+00
      21    -1     0     0   501   502  0.000000000E+00  0.000000000E+00 -1.386873472E+02  1.386873472E+02  0.000000000E+00  0.00000E+00  9.000E+00
      25     1     1     2     0     0 -1.704181688E+02 -3.105747067E+02  4.673355842E+02  5.996053277E+02  1.250000000E+02  0.00000E+00  9.000E+00
      25     1     1     2     0     0  2.348319933E+02  1.595091852E+02  2.978333289E+02  4.300220193E+02  1.250000000E+02  0.00000E+00  9.000E+00
       2     1     1     2   501     0 -6.441382451E+01  1.510655215E+02  1.037572084E+03  1.050488344E+03  1.525878906E-05  0.00000E+00  9.000E+00
#rwgt            1           1   2.9656961460681995E-002           8      127568           0
</event>
<event>
      5   9999  3.79277E-02  3.71509E+01 -1.00000E+00  1.46859E-01
      21    -1     0     0   502   511  0.000000000E+00  0.000000000E+00  8.573493420E+02  8.573493420E+02  0.000000000E+00  0.00000E+00  9.000E+00
      21    -1     0     0   501   502  0.000000000E+00  0.000000000E+00 -1.996036615E+02  1.996036615E+02  0.000000000E+00  0.00000E+00  9.000E+00
      25     1     1     2     0     0 -7.543418805E+01 -2.330532800E+01  2.739386662E+01  1.503624919E+02  1.250000000E+02  0.00000E+00  9.000E+00
      25     1     1     2     0     0  6.576232390E+01 -1.256453485E+01 -1.011280501E+02  1.741678308E+02  1.250000000E+02  0.00000E+00  9.000E+00
      21     1     1     2   501   511  9.671864154E+00  3.586986285E+01  7.314798639E+02  7.324226808E+02  0.000000000E+00  0.00000E+00  9.000E+00
#rwgt            1           1   4.0825057415145374E-002           8      127651           0
</event>
<event>
      5   9999  3.79277E-02  2.83163E+01 -1.00000E+00  1.54803E-01
      21    -1     0     0   502   512  0.000000000E+00  0.000000000E+00  2.727706044E+03  2.727706044E+03  0.000000000E+00  0.00000E+00  9.000E+00
      21    -1     0     0   501   502  0.000000000E+00  0.000000000E+00 -1.026073937E+01  1.026073937E+01  0.000000000E+00  0.00000E+00  9.000E+00
      25     1     1     2     0     0  3.748029900E+01  2.130030496E+01  1.771038621E+03  1.775967701E+03  1.250000000E+02  0.00000E+00  9.000E+00
      25     1     1     2     0     0 -2.190391149E+01 -4.494748497E+01  6.243641427E+02  6.387140521E+02  1.250000000E+02  0.00000E+00  9.000E+00
      21     1     1     2   501   512 -1.557638751E+01  2.364718001E+01  3.220425402E+02  3.232850301E+02  3.814697266E-06  0.00000E+00  9.000E+00
#rwgt            1           1  0.20327118588753235                8      127816           0
</event>
<event>
      5   9999  3.79277E-02  2.29402E+02 -1.00000E+00  1.09522E-01
      21    -1     0     0   502   501  0.000000000E+00  0.000000000E+00  6.705986217E+02  6.705986217E+02  0.000000000E+00  0.00000E+00  9.000E+00
      -2    -1     0     0     0   502  0.000000000E+00  0.000000000E+00 -6.339448227E+02  6.339448227E+02  0.000000000E+00  0.00000E+00  9.000E+00
      25     1     1     2     0     0 -1.092890697E+02 -1.531647054E+02  5.320839313E+02  5.780500304E+02  1.250000000E+02  0.00000E+00  9.000E+00
      25     1     1     2     0     0  9.034112651E+01 -7.545375794E+01  9.432853848E+00  1.719557137E+02  1.250000000E+02  0.00000E+00  9.000E+00
      -2     1     1     2     0   501  1.894794315E+01  2.286184633E+02 -5.048629862E+02  5.545377003E+02  9.344061824E-06  0.00000E+00  9.000E+00
#rwgt            1           1   4.4536903910923568E-002           8      127928           0
</event>
<event>
      5   9999  3.79277E-02  5.95620E+01 -1.00000E+00  1.34874E-01
       2    -1     0     0   502     0  0.000000000E+00  0.000000000E+00  3.156602820E+03  3.156602820E+03  0.000000000E+00  0.00000E+00  9.000E+00
      21    -1     0     0   501   502  0.000000000E+00  0.000000000E+00 -2.493473626E+01  2.493473626E+01  0.000000000E+00  0.00000E+00  9.000E+00
      25     1     1     2     0     0  4.845391218E+01  1.545749343E+02  5.757260559E+02  6.110046509E+02  1.250000000E+02  0.00000E+00  9.000E+00
      25     1     1     2     0     0  8.711591724E+00 -1.713003040E+02  1.868381138E+03  1.880396969E+03  1.250000000E+02  0.00000E+00  9.000E+00
       2     1     1     2   501     0 -5.716550391E+01  1.672536979E+01  6.875608904E+02  6.901359365E+02  7.629394531E-06  0.00000E+00  9.000E+00
#rwgt            1           1   6.2678292118111115E-002           8      128062           0
</event>
<event>
      5   9999  3.79277E-02  5.37813E+01 -1.00000E+00  1.37293E-01
      21    -1     0     0   502   501  0.000000000E+00  0.000000000E+00  8.183270775E+01  8.183270775E+01  0.000000000E+00  0.00000E+00  9.000E+00
       4    -1     0     0   501     0  0.000000000E+00  0.000000000E+00 -1.734059567E+03  1.734059567E+03  0.000000000E+00  0.00000E+00  9.000E+00
      25     1     1     2     0     0  3.739589732E+01  2.775365520E+01 -8.480030869E-02  1.333931247E+02  1.250000000E+02  0.00000E+00  9.000E+00
      25     1     1     2     0     0 -3.633958350E+01 -8.152459836E+01 -3.891904696E+02  4.184029722E+02  1.250000000E+02  0.00000E+00  9.000E+00
       4     1     1     2   502     0 -1.056313814E+00  5.377094315E+01 -1.262951589E+03  1.264096178E+03  0.000000000E+00  0.00000E+00  9.000E+00
#rwgt            1           1   4.1119719475628383E-002           8      128139           0
</event>
<event>
      5   9999  3.79277E-02  1.09457E+02 -1.00000E+00  1.22088E-01
      21    -1     0     0   511   501  0.000000000E+00  0.000000000E+00  5.066353057E+02  5.066353057E+02  0.000000000E+00  0.00000E+00  9.000E+00
      21    -1     0     0   501   502  0.000000000E+00  0.000000000E+00 -1.920272615E+02  1.920272615E+02  0.000000000E+00  0.00000E+00  9.000E+00
      25     1     1     2     0     0 -1.657966711E+01 -7.257062634E+01  2.925770487E+02  3.267532870E+02  1.250000000E+02  0.00000E+00  9.000E+00
      25     1     1     2     0     0 -4.789772920E+01 -1.587967657E+01 -1.282027448E+02  1.860303749E+02  1.250000000E+02  0.00000E+00  9.000E+00
      21     1     1     2   511   502  6.447739630E+01  8.845030290E+01  1.502337403E+02  1.858789053E+02  1.907348633E-06  0.00000E+00  9.000E+00
#rwgt            1           1   3.7315684864345444E-002           8      128341           0
</event>
<event>
      5   9999  3.79277E-02  4.40494E+01 -1.00000E+00  1.42290E-01
      21    -1     0     0   512   501  0.000000000E+00  0.000000000E+00  1.843763796E+02  1.843763796E+02  0.000000000E+00  0.00000E+00  9.000E+00
      21    -1     0     0   501   502  0.000000000E+00  0.000000000E+00 -2.891021198E+02  2.891021198E+02  0.000000000E+00  0.00000E+00  9.000E+00
      25     1     1     2     0     0  9.573034239E+01 -1.555831440E+02 -9.581649750E+01  2.411974592E+02  1.250000000E+02  0.00000E+00  9.000E+00
      25     1     1     2     0     0 -7.675832379E+01  1.158287242E+02 -1.630952757E+01  1.876143233E+02  1.250000000E+02  0.00000E+00  9.000E+00
      21     1     1     2   512   502 -1.897201861E+01  3.975441977E+01  7.400284965E+00  4.466671690E+01  1.460009660E-07  0.00000E+00  9.000E+00
#rwgt            1           1   3.8474028790784466E-002           8      128449           0
</event>
<event>
      5   9999  3.79277E-02  2.63831E+01 -1.00000E+00  1.57019E-01
       2    -1     0     0   502     0  0.000000000E+00  0.000000000E+00  1.608296442E+03  1.608296442E+03  0.000000000E+00  0.00000E+00  9.000E+00
      21    -1     0     0   501   502  0.000000000E+00  0.000000000E+00 -3.061545317E+01  3.061545317E+01  0.000000000E+00  0.00000E+00  9.000E+00
      25     1     1     2     0     0  1.439680086E+02 -4.265846187E+01  6.361670392E+02  6.654923243E+02  1.250000000E+02  0.00000E+00  9.000E+00
      25     1     1     2     0     0 -1.552789212E+02  6.649391420E+01  7.110772618E+02  7.414774820E+02  1.250000000E+02  0.00000E+00  9.000E+00
       2     1     1     2   501     0  1.131091260E+01 -2.383545233E+01  2.304366877E+02  2.319420889E+02  0.000000000E+00  0.00000E+00  9.000E+00
#rwgt            1           1   3.0193470621635497E-002           8      128582           0
</event>
<event>
      5   9999  3.79277E-02  4.21044E+01 -1.00000E+00  1.43473E-01
       2    -1     0     0   502     0  0.000000000E+00  0.000000000E+00  3.152570172E+03  3.152570172E+03  0.000000000E+00  0.00000E+00  9.000E+00
      21    -1     0     0   501   502  0.000000000E+00  0.000000000E+00 -3.085659381E+01  3.085659381E+01  0.000000000E+00  0.00000E+00  9.000E+00
      25     1     1     2     0     0  9.252870287E+01  3.506788049E+00  2.450138513E+02  2.902251639E+02  1.250000000E+02  0.00000E+00  9.000E+00
      25     1     1     2     0     0 -1.338746222E+02 -1.146270104E+01  1.043238888E+03  1.059257375E+03  1.250000000E+02  0.00000E+00  9.000E+00
       2     1     1     2   501     0  4.134591937E+01  7.955912991E+00  1.833460839E+03  1.833944227E+03  3.051757812E-05  0.00000E+00  9.000E+00
#rwgt            1           1   3.9596851667913074E-002           8      128731           0
</event>
<event>
      5   9999  3.79277E-02  4.11071E+01 -1.00000E+00  1.44109E-01
      21    -1     0     0   511   501  0.000000000E+00  0.000000000E+00  2.458914992E+02  2.458914992E+02  0.000000000E+00  0.00000E+00  9.000E+00
      21    -1     0     0   501   502  0.000000000E+00  0.000000000E+00 -2.944912584E+02  2.944912584E+02  0.000000000E+00  0.00000E+00  9.000E+00
      25     1     1     2     0     0 -2.225550392E+02  1.603149047E+01 -3.629844618E+00  2.557849291E+02  1.250000000E+02  0.00000E+00  9.000E+00
      25     1     1     2     0     0  2.028185877E+02  2.002772977E+01 -4.603785397E+01  2.434768438E+02  1.250000000E+02  0.00000E+00  9.000E+00
      21     1     1     2   511   502  1.973645157E+01 -3.605922024E+01  1.067939411E+00  4.112098466E+01  1.504943511E-07  0.00000E+00  9.000E+00
#rwgt            1           1   4.2000853091148281E-002           8      128841           0
</event>
<event>
      5   9999  3.79277E-02  6.65593E+01 -1.00000E+00  1.32339E-01
      21    -1     0     0   502   501  0.000000000E+00  0.000000000E+00  4.511856205E+02  4.511856205E+02  0.000000000E+00  0.00000E+00  9.000E+00
      21    -1     0     0   501   512  0.000000000E+00  0.000000000E+00 -5.264598402E+02  5.264598402E+02  0.000000000E+00  0.00000E+00  9.000E+00
      25     1     1     2     0     0 -1.655533102E+02  1.254007681E+02  3.252261307E+02  4.056233317E+02  1.250000000E+02  0.00000E+00  9.000E+00
      25     1     1     2     0     0  2.171842784E+02 -1.674053666E+02 -2.023538399E+02  3.629953775E+02  1.250000000E+02  0.00000E+00  9.000E+00
      21     1     1     2   502   512 -5.163096824E+01  4.200459849E+01 -1.981465105E+02  2.090267514E+02  2.697398305E-06  0.00000E+00  9.000E+00
#rwgt            1           1   2.8246357154826620E-002           8      128995           0
</event>
<event>
      5   9999  3.79277E-02  2.76244E+01 -1.00000E+00  1.55571E-01
      21    -1     0     0   502   511  0.000000000E+00  0.000000000E+00  1.112028213E+02  1.112028213E+02  0.000000000E+00  0.00000E+00  9.000E+00
      21    -1     0     0   501   502  0.000000000E+00  0.000000000E+00 -4.377903060E+02  4.377903060E+02  0.000000000E+00  0.00000E+00  9.000E+00
      25     1     1     2     0     0 -6.675600659E+01  9.928589203E+01 -7.299779646E+01  1.877970475E+02  1.250000000E+02  0.00000E+00  9.000E+00
      25     1     1     2     0     0  5.521045008E+01 -7.418997119E+01 -2.817125657E+02  3.217752559E+02  1.250000000E+02  0.00000E+00  9.000E+00
      21     1     1     2   501   511  1.154555651E+01 -2.509592084E+01  2.812287745E+01  3.942082386E+01  3.371747881E-07  0.00000E+00  9.000E+00
#rwgt            1           1   3.9758946199290421E-002           8      129081           0
</event>
<event>
      5   9999  3.79277E-02  2.75196E+01 -1.00000E+00  1.55689E-01
      21    -1     0     0   502   512  0.000000000E+00  0.000000000E+00  1.043857113E+03  1.043857113E+03  0.000000000E+00  0.00000E+00  9.000E+00
      21    -1     0     0   501   502  0.000000000E+00  0.000000000E+00 -2.543707384E+02  2.543707384E+02  0.000000000E+00  0.00000E+00  9.000E+00
      25     1     1     2     0     0  1.157884753E+02 -1.634237117E+02 -1.088475268E+02  2.599751232E+02  1.250000000E+02  0.00000E+00  9.000E+00
      25     1     1     2     0     0 -1.033463800E+02  1.388773539E+02  9.374998212E+01  2.331983122E+02  1.250000000E+02  0.00000E+00  9.000E+00
      21     1     1     2   501   512 -1.244209536E+01  2.454635778E+01  8.045839194E+02  8.050544160E+02  1.078959322E-05  0.00000E+00  9.000E+00
#rwgt            1           1   2.9414192996307709E-002           8      129171           0
</event>
<event>
      5   9999  3.79277E-02  1.11384E+01 -1.00000E+00  1.90496E-01
      21    -1     0     0   502   511  0.000000000E+00  0.000000000E+00  1.127293541E+03  1.127293541E+03  0.000000000E+00  0.00000E+00  9.000E+00
      21    -1     0     0   501   502  0.000000000E+00  0.000000000E+00 -1.236958700E+02  1.236958700E+02  0.000000000E+00  0.00000E+00  9.000E+00
      25     1     1     2     0     0  5.901475778E+01 -2.205505745E+01 -6.461125936E+01  1.541712750E+02  1.250000000E+02  0.00000E+00  9.000E+00
      25     1     1     2     0     0 -5.915571119E+01  3.319257625E+01  3.402841812E+02  3.688081741E+02  1.250000000E+02  0.00000E+00  9.000E+00
      21     1     1     2   501   511  1.409534079E-01 -1.113751881E+01  7.279247496E+02  7.280099623E+02  0.000000000E+00  0.00000E+00  9.000E+00
#rwgt            1           1   3.1789815433991023E-002           8      129337           0
</event>
<event>
      5   9999  3.79277E-02  1.87314E+01 -1.00000E+00  1.68752E-01
      21    -1     0     0   502   501  0.000000000E+00  0.000000000E+00  3.422642187E+02  3.422642187E+02  0.000000000E+00  0.00000E+00  9.000E+00
      21    -1     0     0   501   512  0.000000000E+00  0.000000000E+00 -1.520246952E+02  1.520246952E+02  0.000000000E+00  0.00000E+00  9.000E+00
      25     1     1     2     0     0 -5.448186179E+01 -1.692119670E+02  6.919391232E+01  2.280652550E+02  1.250000000E+02  0.00000E+00  9.000E+00
      25     1     1     2     0     0  3.604856150E+01  1.725402758E+02  1.206469568E+02  2.474880477E+02  1.250000000E+02  0.00000E+00  9.000E+00
      21     1     1     2   502   512  1.843330030E+01 -3.328308810E+00  3.986544382E-01  1.873561114E+01  2.277612145E-07  0.00000E+00  9.000E+00
#rwgt            1           1   2.4552331730872838E-002           8      129650           0
</event>
<event>
      5   9999  3.79277E-02  1.40430E+02 -1.00000E+00  1.17540E-01
      21    -1     0     0   502   501  0.000000000E+00  0.000000000E+00  1.839643617E+03  1.839643617E+03  0.000000000E+00  0.00000E+00  9.000E+00
      21    -1     0     0   511   502  0.000000000E+00  0.000000000E+00 -3.649165942E+02  3.649165942E+02  0.000000000E+00  0.00000E+00  9.000E+00
      25     1     1     2     0     0  2.794276316E+02  3.622228781E+01  2.876858793E+02  4.216396810E+02  1.250000000E+02  0.00000E+00  9.000E+00
      25     1     1     2     0     0 -3.809324147E+02 -1.332649644E+02  1.436123784E+03  1.496978817E+03  1.250000000E+02  0.00000E+00  9.000E+00
      21     1     1     2   511   501  1.015047831E+02  9.704267654E+01 -2.490826400E+02  2.859417137E+02  8.092194914E-06  0.00000E+00  9.000E+00
#rwgt            2          11   3.4253699728148002E-003           8      129760           0
</event>
<event>
      5   9999  3.79277E-02  4.92111E+01 -1.00000E+00  1.39471E-01
      21    -1     0     0   512   501  0.000000000E+00  0.000000000E+00  3.701577758E+02  3.701577758E+02  0.000000000E+00  0.00000E+00  9.000E+00
      21    -1     0     0   501   502  0.000000000E+00  0.000000000E+00 -1.865953916E+02  1.865953916E+02  0.000000000E+00  0.00000E+00  9.000E+00
      25     1     1     2     0     0 -2.118318067E+02 -4.844214686E+01  5.291762032E+01  2.562120810E+02  1.250000000E+02  0.00000E+00  9.000E+00
      25     1     1     2     0     0  1.812456009E+02  9.890712029E+00  9.619944552E+01  2.404727164E+02  1.250000000E+02  0.00000E+00  9.000E+00
      21     1     1     2   512   502  3.058620579E+01  3.855143483E+01  3.444531835E+01  6.006836995E+01  9.536743164E-07  0.00000E+00  9.000E+00
#rwgt            1           1  0.21390366097023669                8      129780           0
</event>
<event>
      5   9999 -3.79277E-02  3.74127E+01 -1.00000E+00  1.46665E-01
      21    -1     0     0   502   501  0.000000000E+00  0.000000000E+00  2.418069516E+02  2.418069516E+02  0.000000000E+00  0.00000E+00  9.000E+00
       2    -1     0     0   501     0  0.000000000E+00  0.000000000E+00 -5.536756409E+02  5.536756409E+02  0.000000000E+00  0.00000E+00  9.000E+00
      25     1     1     2     0     0 -1.028154219E+02  8.469339015E+01  1.684358793E+02  2.484745998E+02  1.250000000E+02  0.00000E+00  9.000E+00
      25     1     1     2     0     0  6.715717993E+01 -7.337098491E+01 -1.656122794E+02  2.300995770E+02  1.250000000E+02  0.00000E+00  9.000E+00
       2     1     1     2   502     0  3.565824197E+01 -1.132240524E+01 -3.146922892E+02  3.169084157E+02  0.000000000E+00  0.00000E+00  9.000E+00
#rwgt            1           1  -1.8085588408548590E-002           8      129964           0
</event>
<event>
      5   9999  3.79277E-02  4.19610E+01 -1.00000E+00  1.43563E-01
      21    -1     0     0   502   501  0.000000000E+00  0.000000000E+00  9.069680121E+01  9.069680121E+01  0.000000000E+00  0.00000E+00  9.000E+00
      21    -1     0     0   511   502  0.000000000E+00  0.000000000E+00 -4.573515600E+02  4.573515600E+02  0.000000000E+00  0.00000E+00  9.000E+00
      25     1     1     2     0     0  7.850741271E+01 -7.913387740E+01 -1.773905672E+02  2.439631073E+02  1.250000000E+02  0.00000E+00  9.000E+00
      25     1     1     2     0     0 -1.182727467E+02  9.252941770E+01 -1.468105075E+02  2.443940688E+02  1.250000000E+02  0.00000E+00  9.000E+00
      21     1     1     2   511   501  3.976533395E+01 -1.339554031E+01 -4.245368407E+01  5.969118508E+01  9.536743164E-07  0.00000E+00  9.000E+00
#rwgt            1           1   2.5725589399591079E-002           8      130135           0
</event>
<event>
      5   9999  3.79277E-02  1.93964E+01 -1.00000E+00  1.67475E-01
      21    -1     0     0   502   512  0.000000000E+00  0.000000000E+00  9.007610972E+01  9.007610972E+01  0.000000000E+00  0.00000E+00  9.000E+00
      21    -1     0     0   501   502  0.000000000E+00  0.000000000E+00 -8.370452388E+02  8.370452388E+02  0.000000000E+00  0.00000E+00  9.000E+00
      25     1     1     2     0     0 -1.454410108E+02  8.829539394E+01 -6.148589821E+02  6.500967098E+02  1.250000000E+02  0.00000E+00  9.000E+00
      25     1     1     2     0     0  1.297855326E+02 -9.974642556E+01 -1.466075624E+02  2.528090411E+02  1.250000000E+02  0.00000E+00  9.000E+00
      21     1     1     2   501   512  1.565547818E+01  1.145103162E+01  1.449741533E+01  2.421559773E+01  7.539457465E-07  0.00000E+00  9.000E+00
#rwgt            1           1   2.2664193803267937E-002           8      130272           0
</event>
<event>
      5   9999  3.79277E-02  5.97694E+01 -1.00000E+00  1.34793E-01
      21    -1     0     0   511   501  0.000000000E+00  0.000000000E+00  9.902402405E+01  9.902402405E+01  0.000000000E+00  0.00000E+00  9.000E+00
      21    -1     0     0   501   502  0.000000000E+00  0.000000000E+00 -1.332413086E+03  1.332413086E+03  0.000000000E+00  0.00000E+00  9.000E+00
      25     1     1     2     0     0  1.251841956E+02  6.698409746E+01 -3.522502453E+02  3.998289478E+02  1.250000000E+02  0.00000E+00  9.000E+00
      25     1     1     2     0     0 -7.031965992E+01 -9.069623312E+01 -9.355296508E+02  9.507951350E+02  1.250000000E+02  0.00000E+00  9.000E+00
      21     1     1     2   511   502 -5.486453563E+01  2.371213566E+01  5.439083376E+01  8.081302769E+01  2.523185073E-06  0.00000E+00  9.000E+00
#rwgt            1           1   4.0597052392078448E-002           8      130447           0
</event>
<event>
      5   9999  3.79277E-02  3.23650E+01 -1.00000E+00  1.50786E-01
      21    -1     0     0   502   501  0.000000000E+00  0.000000000E+00  1.039114182E+03  1.039114182E+03  0.000000000E+00  0.00000E+00  9.000E+00
      21    -1     0     0   512   502  0.000000000E+00  0.000000000E+00 -1.582239057E+02  1.582239057E+02  0.000000000E+00  0.00000E+00  9.000E+00
      25     1     1     2     0     0  6.145507802E+01  2.671528694E+02  5.482389053E+01  3.062320055E+02  1.250000000E+02  0.00000E+00  9.000E+00
      25     1     1     2     0     0 -6.558682671E+01 -2.350527102E+02  8.096504846E+02  8.548159543E+02  1.250000000E+02  0.00000E+00  9.000E+00
      21     1     1     2   512   501  4.131748690E+00 -3.210015917E+01  1.641590092E+01  3.629012771E+01  1.039242493E-06  0.00000E+00  9.000E+00
#rwgt            1           1   5.6994118009400831E-002           8      130542           0
</event>
<event>
      5   9999  3.79277E-02  1.00458E+02 -1.00000E+00  1.23739E-01
      21    -1     0     0   502   511  0.000000000E+00  0.000000000E+00  9.424112582E+02  9.424112582E+02  0.000000000E+00  0.00000E+00  9.000E+00
      21    -1     0     0   501   502  0.000000000E+00  0.000000000E+00 -6.899627060E+01  6.899627060E+01  0.000000000E+00  0.00000E+00  9.000E+00
      25     1     1     2     0     0 -1.708022287E+01  4.748663141E+01  6.361012352E+01  1.490569086E+02  1.250000000E+02  0.00000E+00  9.000E+00
      25     1     1     2     0     0  4.834574204E+01 -1.429552285E+02  5.326422075E+02  5.675440330E+02  1.250000000E+02  0.00000E+00  9.000E+00
      21     1     1     2   501   511 -3.126551917E+01  9.546859705E+01  2.771626566E+02  2.948065873E+02  5.394796609E-06  0.00000E+00  9.000E+00
#rwgt            2          11   1.9019204785700437E-003           8      130729           0
</event>
<event>
      5   9999  3.79277E-02  1.00819E+02 -1.00000E+00  1.23669E-01
      21    -1     0     0   502   501  0.000000000E+00  0.000000000E+00  3.048520163E+02  3.048520163E+02  0.000000000E+00  0.00000E+00  9.000E+00
      21    -1     0     0   512   502  0.000000000E+00  0.000000000E+00 -1.346655074E+03  1.346655074E+03  0.000000000E+00  0.00000E+00  9.000E+00
      25     1     1     2     0     0  1.509495023E+02  1.482740465E+02 -4.974652392E+01  2.507402277E+02  1.250000000E+02  0.00000E+00  9.000E+00
      25     1     1     2     0     0 -9.330429695E+01 -6.556068315E+01  1.667638211E+02  2.375690785E+02  1.250000000E+02  0.00000E+00  9.000E+00
      21     1     1     2   512   501 -5.764520538E+01 -8.271336340E+01 -1.158820355E+03  1.163197784E+03  1.525878906E-05  0.00000E+00  9.000E+00
#rwgt            1           1   4.2777959677345538E-002           8      130749           0
</event>
<event>
      5   9999  3.79277E-02  3.18510E+01 -1.00000E+00  1.51255E-01
      21    -1     0     0   502   501  0.000000000E+00  0.000000000E+00  5.601704150E+02  5.601704150E+02  0.000000000E+00  0.00000E+00  9.000E+00
      21    -1     0     0   511   502  0.000000000E+00  0.000000000E+00 -3.853851371E+02  3.853851371E+02  0.000000000E+00  0.00000E+00  9.000E+00
      25     1     1     2     0     0  3.340333269E+02  1.913380715E+01  1.486181081E+02  3.868548929E+02  1.250000000E+02  0.00000E+00  9.000E+00
      25     1     1     2     0     0 -3.154655870E+02  6.745277530E+00  1.919301246E+02  3.899053835E+02  1.250000000E+02  0.00000E+00  9.000E+00
      21     1     1     2   511   501 -1.856773997E+01 -2.587908468E+01 -1.657629547E+02  1.687952758E+02  2.697398305E-06  0.00000E+00  9.000E+00
#rwgt            1           1   2.5185758461682365E-002           8      130845           0
</event>
<event>
      5   9999  3.79277E-02  1.21053E+02 -1.00000E+00  1.20207E-01
      21    -1     0     0   502   501  0.000000000E+00  0.000000000E+00  2.246449462E+02  2.246449462E+02  0.000000000E+00  0.00000E+00  9.000E+00
      21    -1     0     0   512   502  0.000000000E+00  0.000000000E+00 -5.487487059E+02  5.487487059E+02  0.000000000E+00  0.00000E+00  9.000E+00
      25     1     1     2     0     0  5.807751831E+01 -3.405029644E+01  1.538944021E+02  2.093822051E+02  1.250000000E+02  0.00000E+00  9.000E+00
      25     1     1     2     0     0  3.621224144E+01  1.099671227E+02 -2.136789045E+02  2.732906305E+02  1.250000000E+02  0.00000E+00  9.000E+00
      21     1     1     2   512   501 -9.428975975E+01 -7.591682622E+01 -2.643192573E+02  2.907208163E+02  0.000000000E+00  0.00000E+00  9.000E+00
#rwgt            1           1   4.3420005085230799E-002           8      130945           0
</event>
<event>
      5   9999  3.79277E-02  2.35683E+01 -1.00000E+00  1.60693E-01
      21    -1     0     0   511   501  0.000000000E+00  0.000000000E+00  2.275925631E+02  2.275925631E+02  0.000000000E+00  0.00000E+00  9.000E+00
      21    -1     0     0   501   502  0.000000000E+00  0.000000000E+00 -6.864310158E+02  6.864310158E+02  0.000000000E+00  0.00000E+00  9.000E+00
      25     1     1     2     0     0 -1.484949989E+02  2.650800886E+02 -3.527695686E+02  4.820680311E+02  1.250000000E+02  0.00000E+00  9.000E+00
      25     1     1     2     0     0  1.631655008E+02 -2.835256849E+02 -1.508890397E+02  3.813165312E+02  1.250000000E+02  0.00000E+00  9.000E+00
      21     1     1     2   511   502 -1.467050181E+01  1.844559634E+01  4.482015567E+01  5.063901660E+01  1.168007728E-06  0.00000E+00  9.000E+00
#rwgt            1           1   4.2666381738180985E-002           8      130993           0
</event>
<event>
      5   9999  3.79277E-02  1.73734E+01 -1.00000E+00  1.71577E-01
      21    -1     0     0   512   501  0.000000000E+00  0.000000000E+00  1.687860038E+03  1.687860038E+03  0.000000000E+00  0.00000E+00  9.000E+00
      21    -1     0     0   501   502  0.000000000E+00  0.000000000E+00 -2.155441991E+02  2.155441991E+02  0.000000000E+00  0.00000E+00  9.000E+00
      25     1     1     2     0     0  1.426394401E+02 -1.643430389E+02 -8.920483093E+01  2.663402827E+02  1.250000000E+02  0.00000E+00  9.000E+00
      25     1     1     2     0     0 -1.599980960E+02  1.650592452E+02  4.162630062E+02  4.916745219E+02  1.250000000E+02  0.00000E+00  9.000E+00
      21     1     1     2   512   502  1.735865590E+01 -7.162062944E-01  1.145257664E+03  1.145389433E+03  1.525878906E-05  0.00000E+00  9.000E+00
#rwgt            1           1   4.1690420406413582E-002           8      131280           0
</event>
<event>
      5   9999 -3.79277E-02  4.97388E+01 -1.00000E+00  1.39205E-01
      21    -1     0     0   511   501  0.000000000E+00  0.000000000E+00  9.626179957E+02  9.626179957E+02  0.000000000E+00  0.00000E+00  9.000E+00
      21    -1     0     0   501   502  0.000000000E+00  0.000000000E+00 -4.899805480E+01  4.899805480E+01  0.000000000E+00  0.00000E+00  9.000E+00
      25     1     1     2     0     0  2.673090756E+01  8.310259025E+01  4.468587346E+02  4.721528467E+02  1.250000000E+02  0.00000E+00  9.000E+00
      25     1     1     2     0     0 -6.795770570E+01 -1.109289039E+02  2.052726981E+02  2.732862091E+02  1.250000000E+02  0.00000E+00  9.000E+00
      21     1     1     2   511   502  4.122679814E+01  2.782631366E+01  2.614885082E+02  2.661769947E+02  3.814697266E-06  0.00000E+00  9.000E+00
#rwgt            1           1  -3.7896191879832605E-002           8      131690           0
</event>
<event>
      5   9999  3.79277E-02  9.88817E+01 -1.00000E+00  1.24048E-01
      21    -1     0     0   502   501  0.000000000E+00  0.000000000E+00  1.192552068E+03  1.192552068E+03  0.000000000E+00  0.00000E+00  9.000E+00
      21    -1     0     0   512   502  0.000000000E+00  0.000000000E+00 -6.758993859E+01  6.758993859E+01  0.000000000E+00  0.00000E+00  9.000E+00
      25     1     1     2     0     0  1.314232674E+02 -3.461341153E+01  2.579863692E+02  3.172571988E+02  1.250000000E+02  0.00000E+00  9.000E+00
      25     1     1     2     0     0 -2.232134348E+02  7.138513303E+01  7.017308420E+02  7.503141004E+02  1.250000000E+02  0.00000E+00  9.000E+00
      21     1     1     2   512   501  9.179016744E+01 -3.677172151E+01  1.652449177E+02  1.925707070E+02  0.000000000E+00  0.00000E+00  9.000E+00
#rwgt            1           1   3.7749598309716678E-002           8      131838           0
</event>
<event>
      5   9999  3.79277E-02  5.21762E+01 -1.00000E+00  1.38028E-01
      21    -1     0     0   511   501  0.000000000E+00  0.000000000E+00  3.549385973E+02  3.549385973E+02  0.000000000E+00  0.00000E+00  9.000E+00
      21    -1     0     0   501   502  0.000000000E+00  0.000000000E+00 -1.598431611E+02  1.598431611E+02  0.000000000E+00  0.00000E+00  9.000E+00
      25     1     1     2     0     0  3.781015135E+01  1.547327180E+00  2.637523514E+02  2.943166740E+02  1.250000000E+02  0.00000E+00  9.000E+00
      25     1     1     2     0     0 -5.963389788E+00 -4.287703207E+01 -9.417588379E+01  1.623825698E+02  1.250000000E+02  0.00000E+00  9.000E+00
      21     1     1     2   511   502 -3.184676156E+01  4.132970489E+01  2.551896865E+01  5.808251449E+01  1.261592536E-06  0.00000E+00  9.000E+00
#rwgt            1           1   4.6497974415340093E-002           8      131932           0
</event>
<event>
      5   9999  3.79277E-02  2.77560E+01 -1.00000E+00  1.55423E-01
      21    -1     0     0   502   501  0.000000000E+00  0.000000000E+00  1.306206039E+02  1.306206039E+02  0.000000000E+00  0.00000E+00  9.000E+00
      21    -1     0     0   512   502  0.000000000E+00  0.000000000E+00 -5.658022865E+02  5.658022865E+02  0.000000000E+00  0.00000E+00  9.000E+00
      25     1     1     2     0     0  2.356028558E+02 -2.001193966E+01 -1.730812598E+02  3.185770015E+02  1.250000000E+02  0.00000E+00  9.000E+00
      25     1     1     2     0     0 -2.083630066E+02  2.534003684E+01 -2.384451341E+02  3.413771258E+02  1.250000000E+02  0.00000E+00  9.000E+00
      21     1     1     2   512   501 -2.723984916E+01 -5.328097177E+00 -2.365528873E+01  3.646876316E+01  5.840038640E-07  0.00000E+00  9.000E+00
#rwgt            1           1   3.4365725052484350E-002           8      132006           0
</event>
<event>
      5   9999  3.79277E-02  1.60993E+01 -1.00000E+00  1.74538E-01
      21    -1     0     0   502   501  0.000000000E+00  0.000000000E+00  1.022013794E+02  1.022013794E+02  0.000000000E+00  0.00000E+00  9.000E+00
      21    -1     0     0   511   502  0.000000000E+00  0.000000000E+00 -4.759733801E+02  4.759733801E+02  0.000000000E+00  0.00000E+00  9.000E+00
      25     1     1     2     0     0 -3.103142002E+00  1.911586829E+01 -2.694331918E+02  2.976479309E+02  1.250000000E+02  0.00000E+00  9.000E+00
      25     1     1     2     0     0 -5.717394936E+00 -3.258386789E+01  3.995639144E+01  1.353362859E+02  1.250000000E+02  0.00000E+00  9.000E+00
      21     1     1     2   511   501  8.820536937E+00  1.346799959E+01 -1.442952004E+02  1.451905428E+02  2.697398305E-06  0.00000E+00  9.000E+00
#rwgt            1           1   1.5324202742792481E-002           8      132154           0
</event>
<event>
      5   9999  3.79277E-02  1.70306E+01 -1.00000E+00  1.72342E-01
       2    -1     0     0   502     0  0.000000000E+00  0.000000000E+00  1.193659122E+03  1.193659122E+03  0.000000000E+00  0.00000E+00  9.000E+00
      21    -1     0     0   501   502  0.000000000E+00  0.000000000E+00 -1.101272613E+02  1.101272613E+02  0.000000000E+00  0.00000E+00  9.000E+00
      25     1     1     2     0     0 -6.582283797E+01 -1.240052560E+02  6.511553545E+01  1.989346186E+02  1.250000000E+02  0.00000E+00  9.000E+00
      25     1     1     2     0     0  8.274613157E+01  1.220963409E+02  1.735257963E+02  2.597896086E+02  1.250000000E+02  0.00000E+00  9.000E+00
       2     1     1     2   501     0 -1.692329360E+01  1.908915114E+00  8.448905289E+02  8.450621561E+02  0.000000000E+00  0.00000E+00  9.000E+00
#rwgt            1           1   1.7673856279805229E-002           8      132414           0
</event>
<event>
      5   9999  3.79277E-02  3.56511E+01 -1.00000E+00  1.48010E-01
      21    -1     0     0   511   501  0.000000000E+00  0.000000000E+00  3.182000593E+02  3.182000593E+02  0.000000000E+00  0.00000E+00  9.000E+00
      21    -1     0     0   501   502  0.000000000E+00  0.000000000E+00 -1.961365283E+02  1.961365283E+02  0.000000000E+00  0.00000E+00  9.000E+00
      25     1     1     2     0     0 -2.259257488E+01 -1.857889361E+02 -1.694319907E+01  2.256989704E+02  1.250000000E+02  0.00000E+00  9.000E+00
      25     1     1     2     0     0 -8.177092500E+00  1.677825410E+02  8.969798613E+01  2.277906377E+02  1.250000000E+02  0.00000E+00  9.000E+00
      21     1     1     2   511   502  3.076966738E+01  1.800639514E+01  4.930874396E+01  6.084697961E+01  0.000000000E+00  0.00000E+00  9.000E+00
#rwgt            1           1   1.8738395351636610E-002           8      132602           0
</event>
<event>
      5   9999  3.79277E-02  2.02871E+01 -1.00000E+00  1.65860E-01
      21    -1     0     0   512   501  0.000000000E+00  0.000000000E+00  2.502181816E+02  2.502181816E+02  0.000000000E+00  0.00000E+00  9.000E+00
      21    -1     0     0   501   502  0.000000000E+00  0.000000000E+00 -4.034090914E+02  4.034090914E+02  0.000000000E+00  0.00000E+00  9.000E+00
      25     1     1     2     0     0  2.719304788E+02  4.105109049E+01 -7.107266489E+01  3.103348208E+02  1.250000000E+02  0.00000E+00  9.000E+00
      25     1     1     2     0     0 -2.591312149E+02 -5.679105769E+01 -1.061191843E+02  3.118661445E+02  1.250000000E+02  0.00000E+00  9.000E+00
      21     1     1     2   512   502 -1.279926387E+01  1.573996721E+01  2.400093945E+01  3.142630773E+01  0.000000000E+00  0.00000E+00  9.000E+00
#rwgt            1           1   2.7952181427382015E-002           8      132792           0
</event>
<event>
      5   9999  3.79277E-02  5.32132E+01 -1.00000E+00  1.37550E-01
      21    -1     0     0   511   501  0.000000000E+00  0.000000000E+00  7.215245635E+01  7.215245635E+01  0.000000000E+00  0.00000E+00  9.000E+00
      21    -1     0     0   501   502  0.000000000E+00  0.000000000E+00 -1.633105819E+03  1.633105819E+03  0.000000000E+00  0.00000E+00  9.000E+00
      25     1     1     2     0     0 -8.170282661E+01 -2.580572931E+01 -3.485145280E+01  1.555021264E+02  1.250000000E+02  0.00000E+00  9.000E+00
      25     1     1     2     0     0  1.255042896E+02  5.602284463E+01 -1.408198424E+03  1.420400537E+03  1.250000000E+02  0.00000E+00  9.000E+00
      21     1     1     2   511   502 -4.380146300E+01 -3.021711531E+01 -1.179034857E+02  1.293556112E+02  1.348699152E-06  0.00000E+00  9.000E+00
#rwgt            1           1   3.9424375507317019E-002           8      133099           0
</event>
<event>
      5   9999  3.79277E-02  2.11218E+01 -1.00000E+00  1.64437E-01
      21    -1     0     0   502   512  0.000000000E+00  0.000000000E+00  2.135242065E+02  2.135242065E+02  0.000000000E+00  0.00000E+00  9.000E+00
      21    -1     0     0   501   502  0.000000000E+00  0.000000000E+00 -1.976626068E+02  1.976626068E+02  0.000000000E+00  0.00000E+00  9.000E+00
      25     1     1     2     0     0 -4.546869185E+01  1.302067918E+02 -3.306859188E+01  1.890495764E+02  1.250000000E+02  0.00000E+00  9.000E+00
      25     1     1     2     0     0  3.077367372E+01 -1.453787666E+02  3.635935661E+01  1.975576058E+02  1.250000000E+02  0.00000E+00  9.000E+00
      21     1     1     2   501   512  1.469501813E+01  1.517197484E+01  1.257083493E+01  2.457963118E+01  3.371747881E-07  0.00000E+00  9.000E+00
#rwgt            1           1   3.3229488908573336E-002           8      133203           0
</event>
<event>
      5   9999  3.79277E-02  6.80600E+01 -1.00000E+00  1.31842E-01
      21    -1     0     0   502   501  0.000000000E+00  0.000000000E+00  2.478280714E+02  2.478280714E+02  0.000000000E+00  0.00000E+00  9.000E+00
      21    -1     0     0   501   511  0.000000000E+00  0.000000000E+00 -1.342688182E+03  1.342688182E+03  0.000000000E+00  0.00000E+00  9.000E+00
      25     1     1     2     0     0 -1.921374969E+02 -4.348510637E+02 -4.183092202E+02  6.454609741E+02  1.250000000E+02  0.00000E+00  9.000E+00
      25     1     1     2     0     0  1.601826710E+02  4.949430714E+02 -4.215948062E+02  6.811712799E+02  1.250000000E+02  0.00000E+00  9.000E+00
      21     1     1     2   502   511  3.195482588E+01 -6.009200764E+01 -2.549560841E+02  2.638839994E+02  0.000000000E+00  0.00000E+00  9.000E+00
#rwgt            2          11   8.3857628173489279E-003           8      133467           0
</event>
<event>
      5   9999  3.79277E-02  4.04233E+00 -1.00000E+00  2.62398E-01
      21    -1     0     0   502   501  0.000000000E+00  0.000000000E+00  1.687140717E+02  1.687140717E+02  0.000000000E+00  0.00000E+00  9.000E+00
      21    -1     0     0   512   502  0.000000000E+00  0.000000000E+00 -2.634979484E+02  2.634979484E+02  0.000000000E+00  0.00000E+00  9.000E+00
      25     1     1     2     0     0  1.590731040E+02 -2.486498572E+01 -6.849635131E+00  2.039471437E+02  1.250000000E+02  0.00000E+00  9.000E+00
      25     1     1     2     0     0 -1.626155510E+02  2.291780048E+01 -8.469916611E+01  2.230874083E+02  1.250000000E+02  0.00000E+00  9.000E+00
      21     1     1     2   512   501  3.542447063E+00  1.947185237E+00 -3.235075483E+00  5.177468003E+00  1.032382731E-07  0.00000E+00  9.000E+00
#rwgt            2          11   9.9842303348912274E-004           8      133547           0
</event>
<event>
      5   9999  3.79277E-02  2.04627E+01 -1.00000E+00  1.65554E-01
      21    -1     0     0   511   501  0.000000000E+00  0.000000000E+00  1.374595247E+02  1.374595247E+02  0.000000000E+00  0.00000E+00  9.000E+00
      21    -1     0     0   501   502  0.000000000E+00  0.000000000E+00 -5.515926901E+02  5.515926901E+02  0.000000000E+00  0.00000E+00  9.000E+00
      25     1     1     2     0     0  8.150581872E+01 -5.427460707E+01 -1.634115375E+02  2.278535978E+02  1.250000000E+02  0.00000E+00  9.000E+00
      25     1     1     2     0     0 -8.303494105E+01  7.468012598E+01 -3.349335312E+02  3.745362372E+02  1.250000000E+02  0.00000E+00  9.000E+00
      21     1     1     2   511   502  1.529122332E+00 -2.040551891E+01  8.421190325E+01  8.666237977E+01  1.348699152E-06  0.00000E+00  9.000E+00
#rwgt            1           1   4.9933278458010308E-002           8      133582           0
</event>
<event>
      5   9999  3.79277E-02  6.86517E+01 -1.00000E+00  1.31650E-01
      21    -1     0     0   502   501  0.000000000E+00  0.000000000E+00  2.943738910E+02  2.943738910E+02  0.000000000E+00  0.00000E+00  9.000E+00
      21    -1     0     0   512   502  0.000000000E+00  0.000000000E+00 -2.514129394E+02  2.514129394E+02  0.000000000E+00  0.00000E+00  9.000E+00
      25     1     1     2     0     0  1.024271978E+02 -4.703733889E+01 -1.082100734E+02  2.000956324E+02  1.250000000E+02  0.00000E+00  9.000E+00
      25     1     1     2     0     0 -1.550108023E+02  9.117367057E+01  1.667835350E+02  2.752866407E+02  1.250000000E+02  0.00000E+00  9.000E+00
      21     1     1     2   512   501  5.258360448E+01 -4.413633168E+01 -1.561250994E+01  7.040455739E+01  8.085167388E-07  0.00000E+00  9.000E+00
#rwgt            1           1   6.7896034940217037E-002           8      133847           0
</event>
<event>
      5   9999  3.79277E-02  2.47598E+01 -1.00000E+00  1.59066E-01
      21    -1     0     0   502   501  0.000000000E+00  0.000000000E+00  1.276438954E+02  1.276438954E+02  0.000000000E+00  0.00000E+00  9.000E+00
      21    -1     0     0   511   502  0.000000000E+00  0.000000000E+00 -4.321366096E+02  4.321366096E+02  0.000000000E+00  0.00000E+00  9.000E+00
      25     1     1     2     0     0  7.135303535E+01 -1.647647311E+02 -1.387916413E+02  2.590883864E+02  1.250000000E+02  0.00000E+00  9.000E+00
      25     1     1     2     0     0 -4.675072800E+01  1.675528776E+02 -1.123655065E+02  2.418896533E+02  1.250000000E+02  0.00000E+00  9.000E+00
      21     1     1     2   511   501 -2.460230735E+01 -2.788146475E+00 -5.333556638E+01  5.880246533E+01  6.743495762E-07  0.00000E+00  9.000E+00
#rwgt            1           1   2.2940623291613806E-002           8      133963           0
</event>
<event>
      5   9999  3.79277E-02  2.80735E+01 -1.00000E+00  1.55069E-01
      21    -1     0     0   502   512  0.000000000E+00  0.000000000E+00  1.457527716E+03  1.457527716E+03  0.000000000E+00  0.00000E+00  9.000E+00
      21    -1     0     0   501   502  0.000000000E+00  0.000000000E+00 -5.115341982E+01  5.115341982E+01  0.000000000E+00  0.00000E+00  9.000E+00
      25     1     1     2     0     0 -1.096854709E+02  3.609239594E+01  1.136531853E+03  1.149201121E+03  1.250000000E+02  0.00000E+00  9.000E+00
      25     1     1     2     0     0  8.288143173E+01 -4.443889496E+01  9.632308295E+01  1.837043370E+02  1.250000000E+02  0.00000E+00  9.000E+00
      21     1     1     2   501   512  2.680403913E+01  8.346499019E+00  1.735193599E+02  1.757756776E+02  3.303624740E-06  0.00000E+00  9.000E+00
#rwgt            1           1   4.4798586425403623E-002           8      134138           0
</event>
<event>
      5   9999  3.79277E-02  1.14464E+02 -1.00000E+00  1.21245E-01
      21    -1     0     0   511   501  0.000000000E+00  0.000000000E+00  7.415956159E+01  7.415956159E+01  0.000000000E+00  0.00000E+00  9.000E+00
      21    -1     0     0   501   502  0.000000000E+00  0.000000000E+00 -3.637152788E+03  3.637152788E+03  0.000000000E+00  0.00000E+00  9.000E+00
      25     1     1     2     0     0 -1.558982541E+02 -6.882221009E+01 -1.535509706E+03  1.549985748E+03  1.250000000E+02  0.00000E+00  9.000E+00
      25     1     1     2     0     0  1.790255312E+02  1.809252151E+02 -2.027125078E+03  2.046862271E+03  1.250000000E+02  0.00000E+00  9.000E+00
      21     1     1     2   511   502 -2.312727703E+01 -1.121030050E+02 -3.584433004E-01  1.144643314E+02  5.478246798E-06  0.00000E+00  9.000E+00
#rwgt            1           1   1.4349555788854487E-002           8      134403           0
</event>
<event>
      5   9999  3.79277E-02  1.18459E+01 -1.00000E+00  1.87620E-01
      21    -1     0     0   502   512  0.000000000E+00  0.000000000E+00  1.531728052E+02  1.531728052E+02  0.000000000E+00  0.00000E+00  9.000E+00
      21    -1     0     0   501   502  0.000000000E+00  0.000000000E+00 -3.528743711E+02  3.528743711E+02  0.000000000E+00  0.00000E+00  9.000E+00
      25     1     1     2     0     0 -8.817983250E+01 -2.666045591E+01 -2.751882943E+02  3.159747776E+02  1.250000000E+02  0.00000E+00  9.000E+00
      25     1     1     2     0     0  8.434565298E+01  1.545222879E+01  4.618153377E+01  1.584635435E+02  1.250000000E+02  0.00000E+00  9.000E+00
      21     1     1     2   501   512  3.834179521E+00  1.120822712E+01  2.930519464E+01  3.160885510E+01  5.840038640E-07  0.00000E+00  9.000E+00
#rwgt            1           1   3.3412903691704826E-002           8      134575           0
</event>
<event>
      5   9999  3.79277E-02  9.86143E+00 -1.00000E+00  1.96460E-01
       2    -1     0     0   502     0  0.000000000E+00  0.000000000E+00  1.621848311E+03  1.621848311E+03  0.000000000E+00  0.00000E+00  9.000E+00
      21    -1     0     0   501   502  0.000000000E+00  0.000000000E+00 -1.053273602E+02  1.053273602E+02  0.000000000E+00  0.00000E+00  9.000E+00
      25     1     1     2     0     0  8.791352020E+01  1.216356645E+02  1.632146895E+02  2.545349814E+02  1.250000000E+02  0.00000E+00  9.000E+00
      25     1     1     2     0     0 -8.628046994E+01 -1.119103867E+02  8.953249803E+01  2.088284519E+02  1.250000000E+02  0.00000E+00  9.000E+00
       2     1     1     2   501     0 -1.633050260E+00 -9.725277812E+00  1.263773764E+03  1.263812238E+03  1.525878906E-05  0.00000E+00  9.000E+00
#rwgt            1           1   3.4456492437975363E-002           8      134828           0
</event>
<event>
      5   9999  3.79277E-02  1.86653E+02 -1.00000E+00  1.12751E-01
      21    -1     0     0   502   501  0.000000000E+00  0.000000000E+00  4.320256461E+02  4.320256461E+02  0.000000000E+00  0.00000E+00  9.000E+00
      21    -1     0     0   501   511  0.000000000E+00  0.000000000E+00 -3.508432316E+02  3.508432316E+02  0.000000000E+00  0.00000E+00  9.000E+00
      25     1     1     2     0     0 -1.190059412E+02 -2.561210304E+02  2.422368497E+02  3.925099841E+02  1.250000000E+02  0.00000E+00  9.000E+00
      25     1     1     2     0     0  6.559752655E+01  7.727247553E+01 -1.158979447E+02  1.983214677E+02  1.250000000E+02  0.00000E+00  9.000E+00
      21     1     1     2   502   511  5.340841467E+01  1.788485549E+02 -4.515649050E+01  1.920374260E+02  4.573661350E-06  0.00000E+00  9.000E+00
#rwgt            1           1   4.0418112358552111E-002           8      135160           0
</event>
<event>
      5   9999  3.79277E-02  6.69377E+01 -1.00000E+00  1.32212E-01
      21    -1     0     0   502   512  0.000000000E+00  0.000000000E+00  9.683896826E+02  9.683896826E+02  0.000000000E+00  0.00000E+00  9.000E+00
      21    -1     0     0   501   502  0.000000000E+00  0.000000000E+00 -1.584142259E+02  1.584142259E+02  0.000000000E+00  0.00000E+00  9.000E+00
      25     1     1     2     0     0  1.938411740E+02  4.874352243E+01  2.434062616E+02  3.388538621E+02  1.250000000E+02  0.00000E+00  9.000E+00
      25     1     1     2     0     0 -1.628497258E+02  1.058764728E+01 -1.162520132E+01  2.058938483E+02  1.250000000E+02  0.00000E+00  9.000E+00
      21     1     1     2   501   512 -3.099144821E+01 -5.933116970E+01  5.781943965E+02  5.820561980E+02  1.078959322E-05  0.00000E+00  9.000E+00
#rwgt            1           1   4.4510347545277856E-002           8      135223           0
</event>
<event>
      5   9999  3.79277E-02  2.67148E+01 -1.00000E+00  1.56623E-01
      21    -1     0     0   502   501  0.000000000E+00  0.000000000E+00  2.663772517E+02  2.663772517E+02  0.000000000E+00  0.00000E+00  9.000E+00
      21    -1     0     0   511   502  0.000000000E+00  0.000000000E+00 -2.570584016E+02  2.570584016E+02  0.000000000E+00  0.00000E+00  9.000E+00
      25     1     1     2     0     0  5.238310762E+00 -2.046451677E+02  3.215153456E+01  2.420037308E+02  1.250000000E+02  0.00000E+00  9.000E+00
      25     1     1     2     0     0  1.944823755E+01  1.944347280E+02  1.797101844E+01  2.326608151E+02  1.250000000E+02  0.00000E+00  9.000E+00
      21     1     1     2   511   501 -2.468654832E+01  1.021043972E+01 -4.080370280E+01  4.877110732E+01  4.768371582E-07  0.00000E+00  9.000E+00
#rwgt            1           1   3.7581788139342709E-002           8      135363           0
</event>
<event>
      5   9999  3.79277E-02  3.70906E+01 -1.00000E+00  1.46904E-01
       1    -1     0     0   502     0  0.000000000E+00  0.000000000E+00  4.042372216E+02  4.042372216E+02  0.000000000E+00  0.00000E+00  9.000E+00
      21    -1     0     0   501   502  0.000000000E+00  0.000000000E+00 -3.337170393E+02  3.337170393E+02  0.000000000E+00  0.00000E+00  9.000E+00
      25     1     1     2     0     0 -2.234665515E+02 -2.727942565E+01 -6.968248380E+01  2.667622823E+02  1.250000000E+02  0.00000E+00  9.000E+00
      25     1     1     2     0     0  1.937067809E+02  4.941687196E+01 -7.916594178E+01  2.487098521E+02  1.250000000E+02  0.00000E+00  9.000E+00
       1     1     1     2   501     0  2.975977054E+01 -2.213744631E+01  2.193686078E+02  2.224821264E+02  2.697398305E-06  0.00000E+00  9.000E+00
#rwgt            1           1   3.7357072495136485E-002           8      135540           0
</event>
<event>
      5   9999  3.79277E-02  1.36959E+01 -1.00000E+00  1.81187E-01
      21    -1     0     0   511   501  0.000000000E+00  0.000000000E+00  1.703592000E+02  1.703592000E+02  0.000000000E+00  0.00000E+00  9.000E+00
      21    -1     0     0   501   502  0.000000000E+00  0.000000000E+00 -9.564717862E+02  9.564717862E+02  0.000000000E+00  0.00000E+00  9.000E+00
      25     1     1     2     0     0  6.964947151E+01 -3.848619310E+01 -1.447484952E+02  2.071457526E+02  1.250000000E+02  0.00000E+00  9.000E+00
      25     1     1     2     0     0 -7.395809611E+01  2.548562434E+01 -7.732021025E+02  7.871377315E+02  1.250000000E+02  0.00000E+00  9.000E+00
      21     1     1     2   511   502  4.308624600E+00  1.300056876E+01  1.318380116E+02  1.325475021E+02  3.814697266E-06  0.00000E+00  9.000E+00
#rwgt            1           1   3.2909931642659145E-002           8      135774           0
</event>
<event>
      5   9999  3.79277E-02  1.19024E+02 -1.00000E+00  1.20519E-01
      21    -1     0     0   502   512  0.000000000E+00  0.000000000E+00  3.794538785E+02  3.794538785E+02  0.000000000E+00  0.00000E+00  9.000E+00
      21    -1     0     0   501   502  0.000000000E+00  0.000000000E+00 -2.933274966E+02  2.933274966E+02  0.000000000E+00  0.00000E+00  9.000E+00
      25     1     1     2     0     0  7.258759215E+01 -7.114751211E+00 -1.857221218E+02  2.354512364E+02  1.250000000E+02  0.00000E+00  9.000E+00
      25     1     1     2     0     0 -1.773307733E+02 -4.941560396E+01  1.606887154E+02  2.744703414E+02  1.250000000E+02  0.00000E+00  9.000E+00
      21     1     1     2   501   512  1.047431811E+02  5.653035517E+01  1.111597883E+02  1.628597973E+02  1.348699152E-06  0.00000E+00  9.000E+00
#rwgt            1           1   2.9997649259709727E-002           8      135970           0
</event>
<event>
      5   9999  3.79277E-02  8.74763E+01 -1.00000E+00  1.26499E-01
      21    -1     0     0   502   501  0.000000000E+00  0.000000000E+00  9.441954869E+02  9.441954869E+02  0.000000000E+00  0.00000E+00  9.000E+00
      21    -1     0     0   501   511  0.000000000E+00  0.000000000E+00 -1.081527119E+02  1.081527119E+02  0.000000000E+00  0.00000E+00  9.000E+00
      25     1     1     2     0     0 -5.940901028E+01  2.358945712E+02  2.187924723E+02  3.502439509E+02  1.250000000E+02  0.00000E+00  9.000E+00
      25     1     1     2     0     0  3.081007607E+01 -1.532253634E+02  5.668630960E+02  6.011539257E+02  1.250000000E+02  0.00000E+00  9.000E+00
      21     1     1     2   502   511  2.859893422E+01 -8.266920776E+01  5.038720679E+01  1.009503222E+02  1.507891493E-06  0.00000E+00  9.000E+00
#rwgt            1           1   4.0670017768986710E-002           8      136051           0
</event>
<event>
      5   9999 -3.79277E-02  3.31772E+01 -1.00000E+00  1.50064E-01
      21    -1     0     0   502   512  0.000000000E+00  0.000000000E+00  7.187006445E+01  7.187006445E+01  0.000000000E+00  0.00000E+00  9.000E+00
      21    -1     0     0   501   502  0.000000000E+00  0.000000000E+00 -1.211276314E+03  1.211276314E+03  0.000000000E+00  0.00000E+00  9.000E+00
      25     1     1     2     0     0  1.586765576E+02  4.647204335E+01 -9.258389828E+02  9.487574626E+02  1.250000000E+02  0.00000E+00  9.000E+00
      25     1     1     2     0     0 -1.586316265E+02 -7.964924532E+01 -2.081643063E+02  3.007746226E+02  1.250000000E+02  0.00000E+00  9.000E+00
      21     1     1     2   501   512 -4.493112548E-02  3.317720198E+01 -5.402960876E+00  3.361429363E+01  5.591411304E-07  0.00000E+00  9.000E+00
#rwgt            1           1  -5.0339979656701971E-002           8      136173           0
</event>
<event>
      5   9999  3.79277E-02  3.75438E+01 -1.00000E+00  1.46568E-01
      21    -1     0     0   502   511  0.000000000E+00  0.000000000E+00  1.423286320E+02  1.423286320E+02  0.000000000E+00  0.00000E+00  9.000E+00
      21    -1     0     0   501   502  0.000000000E+00  0.000000000E+00 -3.128395966E+02  3.128395966E+02  0.000000000E+00  0.00000E+00  9.000E+00
      25     1     1     2     0     0 -1.004573186E+02  9.830275249E+01 -8.054583221E+01  2.046160675E+02  1.250000000E+02  0.00000E+00  9.000E+00
      25     1     1     2     0     0  1.228413830E+02 -6.816161090E+01 -9.816131487E+01  2.121241484E+02  1.250000000E+02  0.00000E+00  9.000E+00
      21     1     1     2   501   511 -2.238406443E+01 -3.014114159E+01  8.196182470E+00  3.842801275E+01  8.172577143E-07  0.00000E+00  9.000E+00
#rwgt            1           1   3.4339538428500647E-002           8      136291           0
</event>
<event>
      5   9999  3.79277E-02  2.88144E+01 -1.00000E+00  1.54266E-01
      21    -1     0     0   512   501  0.000000000E+00  0.000000000E+00  3.197311380E+02  3.197311380E+02  0.000000000E+00  0.00000E+00  9.000E+00
      21    -1     0     0   501   502  0.000000000E+00  0.000000000E+00 -2.208422570E+02  2.208422570E+02  0.000000000E+00  0.00000E+00  9.000E+00
      25     1     1     2     0     0 -5.583982105E+01  7.801007939E+01  6.199384104E+01  1.693277722E+02  1.250000000E+02  0.00000E+00  9.000E+00
      25     1     1     2     0     0  5.024023100E+01 -4.974497231E+01 -1.349112340E+02  1.970398035E+02  1.250000000E+02  0.00000E+00  9.000E+00
      21     1     1     2   512   502  5.599590056E+00 -2.826510708E+01  1.718062741E+02  1.742058194E+02  1.907348633E-06  0.00000E+00  9.000E+00
#rwgt            1           1   2.7238298209920010E-002           8      136400           0
</event>
<event>
      5   9999 -3.79277E-02  7.94961E+01 -1.00000E+00  1.28482E-01
      21    -1     0     0   502   501  0.000000000E+00  0.000000000E+00  3.928709859E+02  3.928709859E+02  0.000000000E+00  0.00000E+00  9.000E+00
      21    -1     0     0   501   511  0.000000000E+00  0.000000000E+00 -1.163175161E+02  1.163175161E+02  0.000000000E+00  0.00000E+00  9.000E+00
      25     1     1     2     0     0 -4.933256182E+00  2.656067734E+01  1.554056963E+01  1.288266894E+02  1.250000000E+02  0.00000E+00  9.000E+00
      25     1     1     2     0     0  8.153548262E+01 -5.306850789E+00  2.611874385E+02  3.008655441E+02  1.250000000E+02  0.00000E+00  9.000E+00
      21     1     1     2   502   511 -7.660222644E+01 -2.125382655E+01 -1.745383513E-01  7.949626848E+01  3.862328450E-07  0.00000E+00  9.000E+00
#rwgt            1           1  -7.4723968445256500E-002           8      136594           0
</event>
<event>
      5   9999  3.79277E-02  1.88484E+01 -1.00000E+00  1.68523E-01
      21    -1     0     0   502   501  0.000000000E+00  0.000000000E+00  1.419213438E+02  1.419213438E+02  0.000000000E+00  0.00000E+00  9.000E+00
      21    -1     0     0   512   502  0.000000000E+00  0.000000000E+00 -5.504192827E+02  5.504192827E+02  0.000000000E+00  0.00000E+00  9.000E+00
      25     1     1     2     0     0  1.760173036E+02  6.786722191E+01 -8.719402984E+01  2.425197926E+02  1.250000000E+02  0.00000E+00  9.000E+00
      25     1     1     2     0     0 -1.577521441E+02 -6.321483640E+01 -1.104578327E+02  2.381339693E+02  1.250000000E+02  0.00000E+00  9.000E+00
      21     1     1     2   512   501 -1.826515948E+01 -4.652385513E+00 -2.108460763E+02  2.116868646E+02  2.697398305E-06  0.00000E+00  9.000E+00
#rwgt            1           1  0.10419458901893217                8      136682           0
</event>
<event>
      5   9999  3.79277E-02  1.55788E+01 -1.00000E+00  1.75848E-01
      21    -1     0     0   502   501  0.000000000E+00  0.000000000E+00  5.976852067E+02  5.976852067E+02  0.000000000E+00  0.00000E+00  9.000E+00
      21    -1     0     0   501   511  0.000000000E+00  0.000000000E+00 -1.069276304E+02  1.069276304E+02  0.000000000E+00  0.00000E+00  9.000E+00
      25     1     1     2     0     0 -1.360819714E+02 -4.747359006E+01  3.677044199E+02  4.142506308E+02  1.250000000E+02  0.00000E+00  9.000E+00
      25     1     1     2     0     0  1.394388256E+02  3.226075848E+01  1.611805531E+02  2.491748649E+02  1.250000000E+02  0.00000E+00  9.000E+00
      21     1     1     2   502   511 -3.356854196E+00  1.521283158E+01 -3.812739672E+01  4.118734145E+01  9.536743164E-07  0.00000E+00  9.000E+00
#rwgt            1           1   5.1029625428329520E-002           8      136928           0
</event>
<event>
      5   9999  3.79277E-02  3.01667E+01 -1.00000E+00  1.52873E-01
      21    -1     0     0   512   501  0.000000000E+00  0.000000000E+00  6.675115492E+02  6.675115492E+02  0.000000000E+00  0.00000E+00  9.000E+00
      21    -1     0     0   501   502  0.000000000E+00  0.000000000E+00 -7.536698021E+01  7.536698021E+01  0.000000000E+00  0.00000E+00  9.000E+00
      25     1     1     2     0     0 -1.478173702E+02 -9.970887009E+00  1.841243938E+02  2.673503056E+02  1.250000000E+02  0.00000E+00  9.000E+00
      25     1     1     2     0     0  1.432987243E+02 -1.985544626E+01  2.503929125E+02  3.150402733E+02  1.250000000E+02  0.00000E+00  9.000E+00
      21     1     1     2   512   502  4.518645876E+00  2.982633327E+01  1.576272627E+02  1.604879506E+02  3.303624740E-06  0.00000E+00  9.000E+00
#rwgt            1           1   3.8080982551605136E-002           8      137113           0
</event>
<event>
      5   9999  3.79277E-02  5.87613E+01 -1.00000E+00  1.35189E-01
      21    -1     0     0   502   511  0.000000000E+00  0.000000000E+00  5.286879119E+02  5.286879119E+02  0.000000000E+00  0.00000E+00  9.000E+00
      21    -1     0     0   501   502  0.000000000E+00  0.000000000E+00 -1.922012630E+02  1.922012630E+02  0.000000000E+00  0.00000E+00  9.000E+00
      25     1     1     2     0     0  1.118381857E+02  1.051256642E+02  2.059199038E+02  2.856347175E+02  1.250000000E+02  0.00000E+00  9.000E+00
      25     1     1     2     0     0 -1.231962712E+02 -1.627787716E+02 -5.071581878E+01  2.446862154E+02  1.250000000E+02  0.00000E+00  9.000E+00
      21     1     1     2   501   511  1.135808548E+01  5.765310743E+01  1.812825639E+02  1.905682420E+02  0.000000000E+00  0.00000E+00  9.000E+00
#rwgt            1           1   3.7019199184062136E-002           8      137229           0
</event>
<event>
      5   9999  3.79277E-02  3.53350E+01 -1.00000E+00  1.48261E-01
      -4    -1     0     0     0   501  0.000000000E+00  0.000000000E+00  3.809746768E+02  3.809746768E+02  0.000000000E+00  0.00000E+00  9.000E+00
      21    -1     0     0   501   502  0.000000000E+00  0.000000000E+00 -3.641234901E+02  3.641234901E+02  0.000000000E+00  0.00000E+00  9.000E+00
      25     1     1     2     0     0 -8.453768388E+01 -8.968020029E+01 -8.619065086E+00  1.757510928E+02  1.250000000E+02  0.00000E+00  9.000E+00
      25     1     1     2     0     0  5.665804859E+01  1.113893848E+02 -2.419306162E+02  2.996216824E+02  1.250000000E+02  0.00000E+00  9.000E+00
      -4     1     1     2     0   502  2.787963529E+01 -2.170918454E+01  2.674008680E+02  2.697253917E+02  3.814697266E-06  0.00000E+00  9.000E+00
#rwgt            1           1   3.8964001570910102E-002           8      137454           0
</event>
<event>
      5   9999 -3.79277E-02  1.19759E+02 -1.00000E+00  1.20405E-01
      21    -1     0     0   502   501  0.000000000E+00  0.000000000E+00  6.598841119E+02  6.598841119E+02  0.000000000E+00  0.00000E+00  9.000E+00
      21    -1     0     0   511   502  0.000000000E+00  0.000000000E+00 -9.516174724E+02  9.516174724E+02  0.000000000E+00  0.00000E+00  9.000E+00
      25     1     1     2     0     0 -2.105783191E+02  4.008818021E+01  3.968722849E+02  4.680629244E+02  1.250000000E+02  0.00000E+00  9.000E+00
      25     1     1     2     0     0  2.030714890E+02  7.943575602E+01  1.524080492E+02  2.939409505E+02  1.250000000E+02  0.00000E+00  9.000E+00
      21     1     1     2   511   501  7.506830109E+00 -1.195239362E+02 -8.410136946E+02  8.494977094E+02  0.000000000E+00  0.00000E+00  9.000E+00
#rwgt            1           1 -0.11089849216322478                8      137569           0
</event>
<event>
      5   9999  3.79277E-02  4.03494E+01 -1.00000E+00  1.44606E-01
      21    -1     0     0   502   501  0.000000000E+00  0.000000000E+00  5.077798773E+01  5.077798773E+01  0.000000000E+00  0.00000E+00  9.000E+00
      21    -1     0     0   512   502  0.000000000E+00  0.000000000E+00 -1.786904641E+03  1.786904641E+03  0.000000000E+00  0.00000E+00  9.000E+00
      25     1     1     2     0     0 -1.297533266E+02 -1.261927601E+00 -8.982680130E+02  9.161593428E+02  1.250000000E+02  0.00000E+00  9.000E+00
      25     1     1     2     0     0  9.266981655E+01 -1.464049081E+01 -1.066729914E+02  1.892251727E+02  1.250000000E+02  0.00000E+00  9.000E+00
      21     1     1     2   512   501  3.708351001E+01  1.590241841E+01 -7.311856488E+02  7.322981132E+02  1.078959322E-05  0.00000E+00  9.000E+00
#rwgt            1           1   5.6565997378349796E-002           8      137638           0
</event>
<event>
      5   9999  3.79277E-02  3.39126E+01 -1.00000E+00  1.49432E-01
      21    -1     0     0   511   501  0.000000000E+00  0.000000000E+00  4.549239291E+02  4.549239291E+02  0.000000000E+00  0.00000E+00  9.000E+00
      21    -1     0     0   501   502  0.000000000E+00  0.000000000E+00 -1.635339036E+02  1.635339036E+02  0.000000000E+00  0.00000E+00  9.000E+00
      25     1     1     2     0     0 -7.696254900E+01  3.363798246E+01 -1.004809149E+02  1.810418793E+02  1.250000000E+02  0.00000E+00  9.000E+00
      25     1     1     2     0     0  6.529966159E+01 -6.548200729E+01  2.771526372E+02  3.177900618E+02  1.250000000E+02  0.00000E+00  9.000E+00
      21     1     1     2   511   502  1.166288740E+01  3.184402483E+01  1.147183032E+02  1.196258916E+02  2.336015456E-06  0.00000E+00  9.000E+00
#rwgt            1           1   4.6055122150025996E-002           8      137699           0
</event>
<event>
      5   9999  3.79277E-02  4.76000E+01 -1.00000E+00  1.40305E-01
      21    -1     0     0   512   501  0.000000000E+00  0.000000000E+00  7.514420022E+02  7.514420022E+02  0.000000000E+00  0.00000E+00  9.000E+00
      21    -1     0     0   501   502  0.000000000E+00  0.000000000E+00 -6.077115763E+01  6.077115763E+01  0.000000000E+00  0.00000E+00  9.000E+00
      25     1     1     2     0     0 -9.641314731E+01 -4.595046327E+01  1.866998353E+02  2.487745335E+02  1.250000000E+02  0.00000E+00  9.000E+00
      25     1     1     2     0     0  1.409229928E+02  2.907931215E+01  3.116600921E+02  3.653243891E+02  1.250000000E+02  0.00000E+00  9.000E+00
      21     1     1     2   512   502 -4.450984549E+01  1.687115111E+01  1.923109172E+02  1.981142371E+02  0.000000000E+00  0.00000E+00  9.000E+00
#rwgt            1           1   4.1513555495091559E-002           8      137923           0
</event>
<event>
      5   9999 -3.79277E-02  1.53253E+01 -1.00000E+00  1.76510E-01
      21    -1     0     0   502   501  0.000000000E+00  0.000000000E+00  2.316005851E+02  2.316005851E+02  0.000000000E+00  0.00000E+00  9.000E+00
       1    -1     0     0   501     0  0.000000000E+00  0.000000000E+00 -1.070060285E+03  1.070060285E+03  0.000000000E+00  0.00000E+00  9.000E+00
      25     1     1     2     0     0 -1.117135767E+02 -7.636924130E+01 -2.604770836E+01  1.860528617E+02  1.250000000E+02  0.00000E+00  9.000E+00
      25     1     1     2     0     0  1.216155696E+02  8.806605137E+01  8.855808570E+01  2.145076006E+02  1.250000000E+02  0.00000E+00  9.000E+00
       1     1     1     2   502     0 -9.901992813E+00 -1.169681008E+01 -9.009700774E+02  9.011004080E+02  1.078959322E-05  0.00000E+00  9.000E+00
#rwgt            1           1 -0.17755655391032465                8      138025           0
</event>
<event>
      5   9999  3.79277E-02  1.36263E+01 -1.00000E+00  1.81406E-01
      21    -1     0     0   511   501  0.000000000E+00  0.000000000E+00  5.237825656E+02  5.237825656E+02  0.000000000E+00  0.00000E+00  9.000E+00
      21    -1     0     0   501   502  0.000000000E+00  0.000000000E+00 -4.111682271E+02  4.111682271E+02  0.000000000E+00  0.00000E+00  9.000E+00
      25     1     1     2     0     0  1.604488577E+02 -2.722094833E+02 -1.424903160E+02  3.684702551E+02  1.250000000E+02  0.00000E+00  9.000E+00
      25     1     1     2     0     0 -1.701461795E+02  2.626367196E+02  2.709433328E+01  3.380634139E+02  1.250000000E+02  0.00000E+00  9.000E+00
      21     1     1     2   511   502  9.697321839E+00  9.572763652E+00  2.280103212E+02  2.284171238E+02  2.697398305E-06  0.00000E+00  9.000E+00
#rwgt            1           1   3.1615328844988848E-002           8      138377           0
</event>
<event>
      5   9999 -3.79277E-02  2.32056E+02 -1.00000E+00  1.09347E-01
      21    -1     0     0   502   501  0.000000000E+00  0.000000000E+00  1.094256184E+02  1.094256184E+02  0.000000000E+00  0.00000E+00  9.000E+00
       1    -1     0     0   501     0  0.000000000E+00  0.000000000E+00 -1.897620933E+03  1.897620933E+03  0.000000000E+00  0.00000E+00  9.000E+00
      25     1     1     2     0     0 -5.282058530E+01 -2.588342061E+02 -1.984566260E+02  3.532636309E+02  1.250000000E+02  0.00000E+00  9.000E+00
      25     1     1     2     0     0  1.440828007E+02  4.547698964E+01 -4.533474693E+02  4.939402171E+02  1.250000000E+02  0.00000E+00  9.000E+00
       1     1     1     2   502     0 -9.126221545E+01  2.133572165E+02 -1.136391219E+03  1.159842704E+03  2.157918644E-05  0.00000E+00  9.000E+00
#rwgt            1           1 -0.30200822811023392                8      138646           0
</event>
<event>
      5   9999  3.79277E-02  4.56913E+01 -1.00000E+00  1.41346E-01
      21    -1     0     0   502   501  0.000000000E+00  0.000000000E+00  2.574399558E+03  2.574399558E+03  0.000000000E+00  0.00000E+00  9.000E+00
      21    -1     0     0   511   502  0.000000000E+00  0.000000000E+00 -8.273499840E+01  8.273499840E+01  0.000000000E+00  0.00000E+00  9.000E+00
      25     1     1     2     0     0 -6.192520188E+00 -1.000216295E+02  2.462282811E+03  2.467489477E+03  1.250000000E+02  0.00000E+00  9.000E+00
      25     1     1     2     0     0  1.771144491E+00  5.454476284E+01  4.114350348E+01  1.424642270E+02  1.250000000E+02  0.00000E+00  9.000E+00
      21     1     1     2   511   501  4.421375698E+00  4.547686671E+01 -1.176175540E+01  4.718085267E+01  1.617033478E-06  0.00000E+00  9.000E+00
#rwgt            1           1  0.10568741722847098                8      138681           0
</event>
<event>
      5   9999  3.79277E-02  5.22110E+01 -1.00000E+00  1.38012E-01
      21    -1     0     0   502   512  0.000000000E+00  0.000000000E+00  4.823990818E+02  4.823990818E+02  0.000000000E+00  0.00000E+00  9.000E+00
      21    -1     0     0   501   502  0.000000000E+00  0.000000000E+00 -1.263951288E+02  1.263951288E+02  0.000000000E+00  0.00000E+00  9.000E+00
      25     1     1     2     0     0  8.544511845E+00 -8.638572662E+01  1.354646820E+02  2.037429325E+02  1.250000000E+02  0.00000E+00  9.000E+00
      25     1     1     2     0     0  4.358007966E+01  8.338315695E+01 -2.107130254E+01  1.578637830E+02  1.250000000E+02  0.00000E+00  9.000E+00
      21     1     1     2   501   512 -5.212459151E+01  3.002569666E+00  2.416105736E+02  2.471874951E+02  2.697398305E-06  0.00000E+00  9.000E+00
#rwgt            1           1   4.2955179930102602E-002           8      138797           0
</event>
<event>
      5   9999  3.79277E-02  1.10620E+02 -1.00000E+00  1.21888E-01
      21    -1     0     0   511   501  0.000000000E+00  0.000000000E+00  3.751431534E+02  3.751431534E+02  0.000000000E+00  0.00000E+00  9.000E+00
      21    -1     0     0   501   502  0.000000000E+00  0.000000000E+00 -2.455206541E+02  2.455206541E+02  0.000000000E+00  0.00000E+00  9.000E+00
      25     1     1     2     0     0 -4.782582060E+00  2.261835178E+02 -3.670148951E+01  2.610629352E+02  1.250000000E+02  0.00000E+00  9.000E+00
      25     1     1     2     0     0  2.723963645E+01 -1.178666884E+02  1.844868130E+01  1.749282935E+02  1.250000000E+02  0.00000E+00  9.000E+00
      21     1     1     2   511   502 -2.245705439E+01 -1.083168294E+02  1.478753075E+02  1.846725789E+02  2.697398305E-06  0.00000E+00  9.000E+00
#rwgt            1           1   2.5030842398632840E-002           8      139038           0
</event>
<event>
      5   9999  3.79277E-02  4.50105E+01 -1.00000E+00  1.41732E-01
      21    -1     0     0   502   501  0.000000000E+00  0.000000000E+00  1.713021803E+02  1.713021803E+02  0.000000000E+00  0.00000E+00  9.000E+00
      21    -1     0     0   501   512  0.000000000E+00  0.000000000E+00 -3.051668908E+02  3.051668908E+02  0.000000000E+00  0.00000E+00  9.000E+00
      25     1     1     2     0     0 -8.313461838E+01 -8.294829131E+00 -1.771630873E+02  2.323616329E+02  1.250000000E+02  0.00000E+00  9.000E+00
      25     1     1     2     0     0  9.487853091E+01 -3.515658041E+01  8.573564133E+01  1.822457708E+02  1.250000000E+02  0.00000E+00  9.000E+00
      21     1     1     2   502   512 -1.174391254E+01  4.345140954E+01 -4.243726450E+01  6.186166738E+01  4.768371582E-07  0.00000E+00  9.000E+00
#rwgt            1           1   3.0072750248490959E-002           8      139114           0
</event>
<event>
      5   9999  3.79277E-02  1.88755E+01 -1.00000E+00  1.68470E-01
       1    -1     0     0   502     0  0.000000000E+00  0.000000000E+00  1.143892918E+03  1.143892918E+03  0.000000000E+00  0.00000E+00  9.000E+00
      21    -1     0     0   501   502  0.000000000E+00  0.000000000E+00 -4.820425169E+02  4.820425169E+02  0.000000000E+00  0.00000E+00  9.000E+00
      25     1     1     2     0     0  1.458502516E+02  5.699084975E+01 -6.880600692E+01  2.118478686E+02  1.250000000E+02  0.00000E+00  9.000E+00
      25     1     1     2     0     0 -1.345591536E+02 -4.186483750E+01 -3.156639277E+02  3.675969882E+02  1.250000000E+02  0.00000E+00  9.000E+00
       1     1     1     2   501     0 -1.129109801E+01 -1.512601225E+01  1.046320335E+03  1.046490578E+03  2.157918644E-05  0.00000E+00  9.000E+00
#rwgt            1           1   4.7555667896826248E-002           8      139241           0
</event>
<event>
      5   9999  3.79277E-02  1.82814E+01 -1.00000E+00  1.69654E-01
      21    -1     0     0   511   501  0.000000000E+00  0.000000000E+00  5.776392585E+01  5.776392585E+01  0.000000000E+00  0.00000E+00  9.000E+00
      21    -1     0     0   501   502  0.000000000E+00  0.000000000E+00 -8.896523658E+02  8.896523658E+02  0.000000000E+00  0.00000E+00  9.000E+00
      25     1     1     2     0     0  1.134583675E+02 -9.339421207E+01 -5.531692471E+02  5.858468195E+02  1.250000000E+02  0.00000E+00  9.000E+00
      25     1     1     2     0     0 -1.088965024E+02  7.569111033E+01 -2.881918188E+02  3.409796429E+02  1.250000000E+02  0.00000E+00  9.000E+00
      21     1     1     2   511   502 -4.561865093E+00  1.770310175E+01  9.472625979E+00  2.058982922E+01  6.743495762E-07  0.00000E+00  9.000E+00
#rwgt            1           1   4.4247449301297676E-002           8      139377           0
</event>
<event>
      5   9999  3.79277E-02  1.67804E+01 -1.00000E+00  1.72914E-01
      21    -1     0     0   512   501  0.000000000E+00  0.000000000E+00  1.431164244E+03  1.431164244E+03  0.000000000E+00  0.00000E+00  9.000E+00
      21    -1     0     0   501   502  0.000000000E+00  0.000000000E+00 -5.030380417E+01  5.030380417E+01  0.000000000E+00  0.00000E+00  9.000E+00
      25     1     1     2     0     0  2.132019089E+01  1.816421930E+02  5.878880674E+02  6.282402539E+02  1.250000000E+02  0.00000E+00  9.000E+00
      25     1     1     2     0     0 -2.395822290E+01 -1.982139737E+02  4.335169879E+02  4.933809426E+02  1.250000000E+02  0.00000E+00  9.000E+00
      21     1     1     2   512   502  2.638032011E+00  1.657178062E+01  3.594553851E+02  3.598468521E+02  0.000000000E+00  0.00000E+00  9.000E+00
#rwgt            1           1   4.0524222615898560E-002           8      139510           0
</event>
<event>
      5   9999  3.79277E-02  2.23206E+01 -1.00000E+00  1.62529E-01
      21    -1     0     0   511   501  0.000000000E+00  0.000000000E+00  4.857378475E+02  4.857378475E+02  0.000000000E+00  0.00000E+00  9.000E+00
      21    -1     0     0   501   502  0.000000000E+00  0.000000000E+00 -1.233561941E+02  1.233561941E+02  0.000000000E+00  0.00000E+00  9.000E+00
      25     1     1     2     0     0 -1.169490827E+02  3.043877285E+01  3.148202602E+02  3.596392680E+02  1.250000000E+02  0.00000E+00  9.000E+00
      25     1     1     2     0     0  1.357813126E+02 -4.242026178E+01 -8.039739966E+00  1.895407104E+02  1.250000000E+02  0.00000E+00  9.000E+00
      21     1     1     2   511   502 -1.883222996E+01  1.198148893E+01  5.560113322E+01  5.991406327E+01  9.536743164E-07  0.00000E+00  9.000E+00
#rwgt            1           1   2.6602581272845035E-002           8      139657           0
</event>
<event>
      5   9999 -3.79277E-02  2.52220E+01 -1.00000E+00  1.58464E-01
      21    -1     0     0   502   501  0.000000000E+00  0.000000000E+00  4.302832128E+02  4.302832128E+02  0.000000000E+00  0.00000E+00  9.000E+00
      21    -1     0     0   501   512  0.000000000E+00  0.000000000E+00 -1.158886690E+02  1.158886690E+02  0.000000000E+00  0.00000E+00  9.000E+00
      25     1     1     2     0     0 -1.422410162E+02  5.039362045E+01  2.300179456E+02  3.021676339E+02  1.250000000E+02  0.00000E+00  9.000E+00
      25     1     1     2     0     0  1.388280080E+02 -2.540361255E+01  1.009188184E+02  2.138414535E+02  1.250000000E+02  0.00000E+00  9.000E+00
      21     1     1     2   502   512  3.413008245E+00 -2.499000789E+01 -1.654222018E+01  3.016279444E+01  5.331201500E-07  0.00000E+00  9.000E+00
#rwgt            1           1 -0.23128988576400888                8      139804           0
</event>
<event>
      5   9999  3.79277E-02  5.06594E+01 -1.00000E+00  1.38752E-01
      21    -1     0     0   502   501  0.000000000E+00  0.000000000E+00  1.554309637E+03  1.554309637E+03  0.000000000E+00  0.00000E+00  9.000E+00
       1    -1     0     0   501     0  0.000000000E+00  0.000000000E+00 -8.409804502E+02  8.409804502E+02  0.000000000E+00  0.00000E+00  9.000E+00
      25     1     1     2     0     0  5.249151348E+01  1.365083101E+02  6.150208965E+02  6.444110341E+02  1.250000000E+02  0.00000E+00  9.000E+00
      25     1     1     2     0     0 -2.137041652E+01 -1.764814160E+02  9.110243242E+02  9.365856631E+02  1.250000000E+02  0.00000E+00  9.000E+00
       1     1     1     2   502     0 -3.112109696E+01  3.997310591E+01 -8.127160343E+02  8.142933896E+02  1.525878906E-05  0.00000E+00  9.000E+00
#rwgt            1           1  0.13316612051743010                8      140001           0
</event>
<event>
      5   9999  3.79277E-02  1.06643E+02 -1.00000E+00  1.22584E-01
       1    -1     0     0   502     0  0.000000000E+00  0.000000000E+00  1.596264350E+03  1.596264350E+03  0.000000000E+00  0.00000E+00  9.000E+00
      21    -1     0     0   501   502  0.000000000E+00  0.000000000E+00 -8.284121450E+01  8.284121450E+01  0.000000000E+00  0.00000E+00  9.000E+00
      25     1     1     2     0     0 -4.869790737E+01  7.196060276E+01  3.653680313E+01  1.565559086E+02  1.250000000E+02  0.00000E+00  9.000E+00
      25     1     1     2     0     0  1.131827963E+02  1.297755740E+01  3.309394597E+02  3.716512995E+02  1.250000000E+02  0.00000E+00  9.000E+00
       1     1     1     2   501     0 -6.448488897E+01 -8.493816015E+01  1.145946873E+03  1.150898357E+03  2.157918644E-05  0.00000E+00  9.000E+00
#rwgt            1           1   2.5983964877542808E-002           8      140132           0
</event>
<event>
      5   9999  3.79277E-02  3.18356E+01 -1.00000E+00  1.51270E-01
      21    -1     0     0   502   501  0.000000000E+00  0.000000000E+00  2.048811007E+02  2.048811007E+02  0.000000000E+00  0.00000E+00  9.000E+00
      21    -1     0     0   511   502  0.000000000E+00  0.000000000E+00 -2.383194799E+02  2.383194799E+02  0.000000000E+00  0.00000E+00  9.000E+00
      25     1     1     2     0     0 -1.127116583E+02  6.342869497E+01  7.066414920E+00  1.800056985E+02  1.250000000E+02  0.00000E+00  9.000E+00
      25     1     1     2     0     0  1.358349409E+02 -8.531063822E+01  9.878124373E+00  2.035966933E+02  1.250000000E+02  0.00000E+00  9.000E+00
      21     1     1     2   511   501 -2.312328260E+01  2.188194325E+01 -5.038291855E+01  5.959818890E+01  6.743495762E-07  0.00000E+00  9.000E+00
#rwgt            1           1   3.8204778999183842E-002           8      140171           0
</event>
<event>
      5   9999  3.79277E-02  4.88349E+01 -1.00000E+00  1.39662E-01
      21    -1     0     0   502   501  0.000000000E+00  0.000000000E+00  1.617600975E+02  1.617600975E+02  0.000000000E+00  0.00000E+00  9.000E+00
      21    -1     0     0   501   512  0.000000000E+00  0.000000000E+00 -8.001269596E+02  8.001269596E+02  0.000000000E+00  0.00000E+00  9.000E+00
      25     1     1     2     0     0 -2.548263726E+02  3.999517455E+01 -6.442618422E+01  2.937887461E+02  1.250000000E+02  0.00000E+00  9.000E+00
      25     1     1     2     0     0  2.100423626E+02 -5.946932478E+01 -3.078157549E+02  3.975297896E+02  1.250000000E+02  0.00000E+00  9.000E+00
      21     1     1     2   502   512  4.478400998E+01  1.947415024E+01 -2.661249230E+02  2.705685213E+02  5.394796609E-06  0.00000E+00  9.000E+00
#rwgt            1           1   3.2326254567601465E-002           8      140293           0
</event>
<event>
      5   9999  3.79277E-02  2.63425E+01 -1.00000E+00  1.57068E-01
      21    -1     0     0   502   511  0.000000000E+00  0.000000000E+00  4.581197582E+02  4.581197582E+02  0.000000000E+00  0.00000E+00  9.000E+00
      21    -1     0     0   501   502  0.000000000E+00  0.000000000E+00 -8.706713668E+01  8.706713668E+01  0.000000000E+00  0.00000E+00  9.000E+00
      25     1     1     2     0     0 -1.220004821E+02 -6.954942046E+01  1.268010836E+02  2.267702677E+02  1.250000000E+02  0.00000E+00  9.000E+00
      25     1     1     2     0     0  9.783342579E+01  8.003185872E+01  2.169302358E+02  2.804642666E+02  1.250000000E+02  0.00000E+00  9.000E+00
      21     1     1     2   501   511  2.416705634E+01 -1.048243826E+01  2.732130213E+01  3.795236059E+01  3.371747881E-07  0.00000E+00  9.000E+00
#rwgt            1           1   3.1298302159547514E-002           8      140409           0
</event>
<event>
      5   9999  3.79277E-02  2.11408E+01 -1.00000E+00  1.64405E-01
      21    -1     0     0   502   501  0.000000000E+00  0.000000000E+00  5.333660405E+02  5.333660405E+02  0.000000000E+00  0.00000E+00  9.000E+00
      21    -1     0     0   501   512  0.000000000E+00  0.000000000E+00 -9.277973949E+01  9.277973949E+01  0.000000000E+00  0.00000E+00  9.000E+00
      25     1     1     2     0     0  1.173277864E+02  7.566218044E+00  5.283062503E+01  1.795525886E+02  1.250000000E+02  0.00000E+00  9.000E+00
      25     1     1     2     0     0 -9.675024760E+01 -1.241389996E+01  3.938699117E+02  4.245859426E+02  1.250000000E+02  0.00000E+00  9.000E+00
      21     1     1     2   502   512 -2.057753879E+01  4.847681918E+00 -6.114235716E+00  2.200724883E+01  5.527507362E-07  0.00000E+00  9.000E+00
#rwgt            1           1   3.2107172042822422E-002           8      140537           0
</event>
<event>
      5   9999  3.79277E-02  5.46370E+01 -1.00000E+00  1.36913E-01
      21    -1     0     0   502   511  0.000000000E+00  0.000000000E+00  9.297253174E+02  9.297253174E+02  0.000000000E+00  0.00000E+00  9.000E+00
      21    -1     0     0   501   502  0.000000000E+00  0.000000000E+00 -6.585273779E+01  6.585273779E+01  0.000000000E+00  0.00000E+00  9.000E+00
      25     1     1     2     0     0 -1.423545016E+02 -1.174552141E+02  2.696038260E+02  3.498167441E+02  1.250000000E+02  0.00000E+00  9.000E+00
      25     1     1     2     0     0  8.780285768E+01  1.144029443E+02  3.882462883E+02  4.326171007E+02  1.250000000E+02  0.00000E+00  9.000E+00
      21     1     1     2   501   511  5.455164391E+01  3.052269769E+00  2.060224654E+02  2.131442104E+02  4.672030912E-06  0.00000E+00  9.000E+00
#rwgt            1           1   1.7988869724427037E-002           8      140666           0
</event>
<event>
      5   9999  3.79277E-02  1.98045E+01 -1.00000E+00  1.66722E-01
      21    -1     0     0   502   501  0.000000000E+00  0.000000000E+00  1.338962006E+03  1.338962006E+03  0.000000000E+00  0.00000E+00  9.000E+00
      21    -1     0     0   512   502  0.000000000E+00  0.000000000E+00 -3.422261131E+02  3.422261131E+02  0.000000000E+00  0.00000E+00  9.000E+00
      25     1     1     2     0     0 -2.516562001E+02 -1.902923404E+01  3.352356195E+02  4.378365853E+02  1.250000000E+02  0.00000E+00  9.000E+00
      25     1     1     2     0     0  2.600187263E+02  1.076928418E+00  9.302047284E+02  9.739182381E+02  1.250000000E+02  0.00000E+00  9.000E+00
      21     1     1     2   512   501 -8.362526172E+00  1.795230562E+01 -2.687044546E+02  2.694332961E+02  3.814697266E-06  0.00000E+00  9.000E+00
#rwgt            1           1  0.10144620926555693                8      140752           0
</event>
<event>
      5   9999  3.79277E-02  9.09025E+01 -1.00000E+00  1.25720E-01
      21    -1     0     0   502   501  0.000000000E+00  0.000000000E+00  1.817673601E+02  1.817673601E+02  0.000000000E+00  0.00000E+00  9.000E+00
      21    -1     0     0   501   511  0.000000000E+00  0.000000000E+00 -4.914725027E+02  4.914725027E+02  0.000000000E+00  0.00000E+00  9.000E+00
      25     1     1     2     0     0  1.791553448E+02 -1.513182355E+02 -1.320927112E+02  2.967614030E+02  1.250000000E+02  0.00000E+00  9.000E+00
      25     1     1     2     0     0 -8.918285404E+01  1.642879842E+02 -6.980325016E+01  2.354604360E+02  1.250000000E+02  0.00000E+00  9.000E+00
      21     1     1     2   502   511 -8.997249080E+01 -1.296974861E+01 -1.078091812E+02  1.410180238E+02  1.907348633E-06  0.00000E+00  9.000E+00
#rwgt            1           1   4.0293349030317296E-002           8      141020           0
</event>
<event>
      5   9999  3.79277E-02  6.87515E+00 -1.00000E+00  2.16664E-01
      21    -1     0     0   502   501  0.000000000E+00  0.000000000E+00  2.483769954E+02  2.483769954E+02  0.000000000E+00  0.00000E+00  9.000E+00
       2    -1     0     0   501     0  0.000000000E+00  0.000000000E+00 -8.877293140E+02  8.877293140E+02  0.000000000E+00  0.00000E+00  9.000E+00
      25     1     1     2     0     0  4.267315902E+01 -1.820803301E+02  1.526299672E+02  2.718366274E+02  1.250000000E+02  0.00000E+00  9.000E+00
      25     1     1     2     0     0 -4.894050045E+01  1.792540129E+02 -3.110111368E+02  3.832493978E+02  1.250000000E+02  0.00000E+00  9.000E+00
       2     1     1     2   502     0  6.267341430E+00  2.826317193E+00 -4.809711490E+02  4.810202842E+02  5.394796609E-06  0.00000E+00  9.000E+00
#rwgt            1           1   9.7394689987838692E-003           8      141232           0
</event>
<event>
      5   9999  3.79277E-02  2.34214E+01 -1.00000E+00  1.60902E-01
      21    -1     0     0   502   511  0.000000000E+00  0.000000000E+00  2.408546934E+03  2.408546934E+03  0.000000000E+00  0.00000E+00  9.000E+00
      21    -1     0     0   501   502  0.000000000E+00  0.000000000E+00 -3.680771425E+01  3.680771425E+01  0.000000000E+00  0.00000E+00  9.000E+00
      25     1     1     2     0     0 -2.389253712E+01  1.615054234E+02  3.121888247E+02  3.738204347E+02  1.250000000E+02  0.00000E+00  9.000E+00
      25     1     1     2     0     0  4.226788981E+01 -1.469827357E+02  1.753807574E+03  1.764895608E+03  1.250000000E+02  0.00000E+00  9.000E+00
      21     1     1     2   501   511 -1.837535270E+01 -1.452268766E+01  3.057428213E+02  3.066386062E+02  6.607249480E-06  0.00000E+00  9.000E+00
#rwgt            1           1   5.2270661579502239E-003           8      141690           0
</event>
<event>
      5   9999  3.79277E-02  2.29713E+01 -1.00000E+00  1.61554E-01
      21    -1     0     0   502   512  0.000000000E+00  0.000000000E+00  4.532420663E+02  4.532420663E+02  0.000000000E+00  0.00000E+00  9.000E+00
      21    -1     0     0   501   502  0.000000000E+00  0.000000000E+00 -7.214551729E+02  7.214551729E+02  0.000000000E+00  0.00000E+00  9.000E+00
      25     1     1     2     0     0 -3.612833832E+02  2.415786108E+02  2.047156018E+02  4.964064724E+02  1.250000000E+02  0.00000E+00  9.000E+00
      25     1     1     2     0     0  3.383351085E+02 -2.405502617E+02 -4.864714620E+02  6.516245525E+02  1.250000000E+02  0.00000E+00  9.000E+00
      21     1     1     2   501   512  2.294827468E+01 -1.028349136E+00  1.354275357E+01  2.666621434E+01  3.371747881E-07  0.00000E+00  9.000E+00
#rwgt            1           1   5.2552533798015236E-002           8      141886           0
</event>
<event>
      5   9999 -3.79277E-02  2.76271E+01 -1.00000E+00  1.55568E-01
      21    -1     0     0   502   511  0.000000000E+00  0.000000000E+00  1.486494066E+02  1.486494066E+02  0.000000000E+00  0.00000E+00  9.000E+00
      21    -1     0     0   501   502  0.000000000E+00  0.000000000E+00 -5.551318765E+02  5.551318765E+02  0.000000000E+00  0.00000E+00  9.000E+00
      25     1     1     2     0     0  3.611703452E+01 -1.032014923E+02 -2.796535713E+02  3.252477643E+02  1.250000000E+02  0.00000E+00  9.000E+00
      25     1     1     2     0     0 -1.956332840E+01  8.108294287E+01 -2.283278282E+02  2.733418456E+02  1.250000000E+02  0.00000E+00  9.000E+00
      21     1     1     2   501   511 -1.655370612E+01  2.211854944E+01  1.014989296E+02  1.051916733E+02  1.348699152E-06  0.00000E+00  9.000E+00
#rwgt            1           1  -3.9875620994930867E-002           8      142167           0
</event>
<event>
      5   9999  3.79277E-02  1.21673E+02 -1.00000E+00  1.20114E-01
      21    -1     0     0   502   501  0.000000000E+00  0.000000000E+00  2.929849024E+02  2.929849024E+02  0.000000000E+00  0.00000E+00  9.000E+00
      21    -1     0     0   501   512  0.000000000E+00  0.000000000E+00 -2.826388930E+02  2.826388930E+02  0.000000000E+00  0.00000E+00  9.000E+00
      25     1     1     2     0     0  4.285301269E+01  9.231430832E+01 -5.583350961E+01  1.705892523E+02  1.250000000E+02  0.00000E+00  9.000E+00
      25     1     1     2     0     0  6.173691124E+01 -1.544853672E+02  1.506625337E+02  2.569073256E+02  1.250000000E+02  0.00000E+00  9.000E+00
      21     1     1     2   502   512 -1.045899239E+02  6.217105891E+01 -8.448301477E+01  1.481272174E+02  1.348699152E-06  0.00000E+00  9.000E+00
#rwgt            1           1   3.9345733164862132E-002           8      142308           0
</event>
<event>
      5   9999  3.79277E-02  2.76879E+01 -1.00000E+00  1.55499E-01
      21    -1     0     0   502   501  0.000000000E+00  0.000000000E+00  2.385874356E+02  2.385874356E+02  0.000000000E+00  0.00000E+00  9.000E+00
      21    -1     0     0   511   502  0.000000000E+00  0.000000000E+00 -1.734988891E+02  1.734988891E+02  0.000000000E+00  0.00000E+00  9.000E+00
      25     1     1     2     0     0  1.747612508E+01 -5.910040471E+01 -8.196886955E+01  1.616853993E+02  1.250000000E+02  0.00000E+00  9.000E+00
      25     1     1     2     0     0  8.221495911E+00  6.940833295E+01  1.641653364E+02  2.178540047E+02  1.250000000E+02  0.00000E+00  9.000E+00
      21     1     1     2   511   501 -2.569762099E+01 -1.030792824E+01 -1.710792034E+01  3.254692071E+01  2.384185791E-07  0.00000E+00  9.000E+00
#rwgt            1           1   4.5784785001385386E-002           8      142366           0
</event>
<event>
      5   9999 -3.79277E-02  4.34858E+01 -1.00000E+00  1.42625E-01
      21    -1     0     0   502   512  0.000000000E+00  0.000000000E+00  1.985851882E+02  1.985851882E+02  0.000000000E+00  0.00000E+00  9.000E+00
      21    -1     0     0   501   502  0.000000000E+00  0.000000000E+00 -3.399843915E+02  3.399843915E+02  0.000000000E+00  0.00000E+00  9.000E+00
      25     1     1     2     0     0 -1.062949488E+02 -2.018865345E+01 -1.288490521E+02  2.096026624E+02  1.250000000E+02  0.00000E+00  9.000E+00
      25     1     1     2     0     0  1.375617453E+02  5.041125210E+01 -1.103316368E+02  2.219517925E+02  1.250000000E+02  0.00000E+00  9.000E+00
      21     1     1     2   501   512 -3.126679641E+01 -3.022259865E+01  9.778148552E+01  1.070151248E+02  1.348699152E-06  0.00000E+00  9.000E+00
#rwgt            1           1  -9.4333661169002922E-002           8      142452           0
</event>
<event>
      5   9999  3.79277E-02  3.17631E+01 -1.00000E+00  1.51337E-01
      21    -1     0     0   502   501  0.000000000E+00  0.000000000E+00  2.444921668E+02  2.444921668E+02  0.000000000E+00  0.00000E+00  9.000E+00
      21    -1     0     0   501   511  0.000000000E+00  0.000000000E+00 -2.822111356E+02  2.822111356E+02  0.000000000E+00  0.00000E+00  9.000E+00
      25     1     1     2     0     0 -1.909958048E+02 -6.744674683E+01 -2.997262497E+01  2.398996026E+02  1.250000000E+02  0.00000E+00  9.000E+00
      25     1     1     2     0     0  2.157186162E+02  4.750491645E+01  1.194067679E+00  2.538063519E+02  1.250000000E+02  0.00000E+00  9.000E+00
      21     1     1     2   502   511 -2.472281143E+01  1.994183037E+01 -8.940411521E+00  3.299734780E+01  1.685873940E-07  0.00000E+00  9.000E+00
#rwgt            1           1  0.28783007141692080                8      142528           0
</event>
<event>
      5   9999  3.79277E-02  5.71896E+01 -1.00000E+00  1.35826E-01
      21    -1     0     0   502   512  0.000000000E+00  0.000000000E+00  2.425875978E+03  2.425875978E+03  0.000000000E+00  0.00000E+00  9.000E+00
      21    -1     0     0   501   502  0.000000000E+00  0.000000000E+00 -1.090492266E+02  1.090492266E+02  0.000000000E+00  0.00000E+00  9.000E+00
      25     1     1     2     0     0  4.428787303E+01  1.296654630E+02  2.305671554E+02  2.959066764E+02  1.250000000E+02  0.00000E+00  9.000E+00
      25     1     1     2     0     0 -3.973636602E+00 -8.910172954E+01  1.591124939E+00  1.535657503E+02  1.250000000E+02  0.00000E+00  9.000E+00
      21     1     1     2   501   512 -4.031423643E+01 -4.056373348E+01  2.084668471E+03  2.085452778E+03  0.000000000E+00  0.00000E+00  9.000E+00
#rwgt            1           1   2.8044486415273448E-002           8      142754           0
</event>
<event>
      5   9999  3.79277E-02  1.96001E+01 -1.00000E+00  1.67096E-01
      21    -1     0     0   502   501  0.000000000E+00  0.000000000E+00  2.526570501E+02  2.526570501E+02  0.000000000E+00  0.00000E+00  9.000E+00
      21    -1     0     0   511   502  0.000000000E+00  0.000000000E+00 -1.780466139E+02  1.780466139E+02  0.000000000E+00  0.00000E+00  9.000E+00
      25     1     1     2     0     0  1.518973308E+01  1.145599592E+02  1.373534254E+02  2.187365441E+02  1.250000000E+02  0.00000E+00  9.000E+00
      25     1     1     2     0     0 -2.621225405E+01 -1.307670038E+02 -5.490202813E+01  1.908568160E+02  1.250000000E+02  0.00000E+00  9.000E+00
      21     1     1     2   511   501  1.102252097E+01  1.620704454E+01 -7.840960967E+00  2.111030388E+01  2.795705652E-07  0.00000E+00  9.000E+00
#rwgt            1           1   4.6356910285726756E-002           8      142843           0
</event>
<event>
      5   9999  3.79277E-02  1.72971E+01 -1.00000E+00  1.71746E-01
      21    -1     0     0   502   512  0.000000000E+00  0.000000000E+00  1.036194567E+02  1.036194567E+02  0.000000000E+00  0.00000E+00  9.000E+00
      21    -1     0     0   501   502  0.000000000E+00  0.000000000E+00 -9.044488234E+02  9.044488234E+02  0.000000000E+00  0.00000E+00  9.000E+00
      25     1     1     2     0     0 -2.962976334E+00  2.231465086E+02 -1.532824742E+02  2.982007049E+02  1.250000000E+02  0.00000E+00  9.000E+00
      25     1     1     2     0     0 -6.425616104E+00 -2.086192128E+02 -6.484102408E+02  6.925489909E+02  1.250000000E+02  0.00000E+00  9.000E+00
      21     1     1     2   501   512  9.388592438E+00 -1.452729580E+01  8.633482239E-01  1.731858427E+01  1.611807022E-07  0.00000E+00  9.000E+00
#rwgt            1           1   4.5121118749040540E-002           8      142974           0
</event>
<event>
      5   9999  3.79277E-02  6.42223E+01 -1.00000E+00  1.33144E-01
      21    -1     0     0   502   501  0.000000000E+00  0.000000000E+00  1.669935340E+01  1.669935340E+01  0.000000000E+00  0.00000E+00  9.000E+00
       2    -1     0     0   501     0  0.000000000E+00  0.000000000E+00 -2.340279100E+03  2.340279100E+03  0.000000000E+00  0.00000E+00  9.000E+00
      25     1     1     2     0     0  9.671957978E+01 -7.147870456E+01 -9.106469713E+02  9.270203820E+02  1.250000000E+02  0.00000E+00  9.000E+00
      25     1     1     2     0     0 -3.347979330E+01  8.266963038E+01 -8.978212247E+02  9.108584499E+02  1.250000000E+02  0.00000E+00  9.000E+00
       2     1     1     2   502     0 -6.323978648E+01 -1.119092582E+01 -5.151115504E+02  5.190996213E+02  1.078959322E-05  0.00000E+00  9.000E+00
#rwgt            1           1   9.3169625411854029E-002           8      143179           0
</event>
<event>
      5   9999 -3.79277E-02  1.37248E+01 -1.00000E+00  1.81097E-01
      21    -1     0     0   502   501  0.000000000E+00  0.000000000E+00  3.028828226E+02  3.028828226E+02  0.000000000E+00  0.00000E+00  9.000E+00
      21    -1     0     0   501   511  0.000000000E+00  0.000000000E+00 -5.108335109E+02  5.108335109E+02  0.000000000E+00  0.00000E+00  9.000E+00
      25     1     1     2     0     0 -2.172724834E+02  9.429918244E+01 -5.308675991E+01  2.730254053E+02  1.250000000E+02  0.00000E+00  9.000E+00
      25     1     1     2     0     0  2.111280712E+02 -8.202660780E+01  1.059181075E+02  2.795479786E+02  1.250000000E+02  0.00000E+00  9.000E+00
      21     1     1     2   502   511  6.144412198E+00 -1.227257464E+01 -2.607820358E+02  2.611429495E+02  0.000000000E+00  0.00000E+00  9.000E+00
#rwgt            1           1 -0.10359920875082229                8      143265           0
</event>
<event>
      5   9999  3.79277E-02  1.84056E+01 -1.00000E+00  1.69402E-01
      21    -1     0     0   502   501  0.000000000E+00  0.000000000E+00  2.284433727E+02  2.284433727E+02  0.000000000E+00  0.00000E+00  9.000E+00
      21    -1     0     0   512   502  0.000000000E+00  0.000000000E+00 -3.078751301E+02  3.078751301E+02  0.000000000E+00  0.00000E+00  9.000E+00
      25     1     1     2     0     0 -1.989261808E+02 -1.787276773E+01  3.876232088E+01  2.387856335E+02  1.250000000E+02  0.00000E+00  9.000E+00
      25     1     1     2     0     0  1.831053428E+02  2.727849204E+01 -5.270875316E+01  2.295101203E+02  1.250000000E+02  0.00000E+00  9.000E+00
      21     1     1     2   512   501  1.582083804E+01 -9.405724315E+00 -6.548532516E+01  6.802274897E+01  1.348699152E-06  0.00000E+00  9.000E+00
#rwgt            1           1   3.9431836282806249E-002           8      143582           0
</event>
<event>
      5   9999  3.79277E-02  3.01978E+01 -1.00000E+00  1.52842E-01
      21    -1     0     0   511   501  0.000000000E+00  0.000000000E+00  8.537145040E+01  8.537145040E+01  0.000000000E+00  0.00000E+00  9.000E+00
      21    -1     0     0   501   502  0.000000000E+00  0.000000000E+00 -5.159329890E+02  5.159329890E+02  0.000000000E+00  0.00000E+00  9.000E+00
      25     1     1     2     0     0 -4.092560769E+00 -7.540985461E+01 -2.663403601E+02  3.037525023E+02  1.250000000E+02  0.00000E+00  9.000E+00
      25     1     1     2     0     0 -6.948472887E+00  1.035168726E+02 -1.954268302E+02  2.541272715E+02  1.250000000E+02  0.00000E+00  9.000E+00
      21     1     1     2   511   502  1.104103366E+01 -2.810701798E+01  3.120565168E+01  4.342466557E+01  1.011524364E-06  0.00000E+00  9.000E+00
#rwgt            1           1   4.7177304433385948E-002           8      143931           0
</event>
<event>
      5   9999  3.79277E-02  2.76058E+02 -1.00000E+00  1.06779E-01
      21    -1     0     0   502   501  0.000000000E+00  0.000000000E+00  2.264278230E+02  2.264278230E+02  0.000000000E+00  0.00000E+00  9.000E+00
      21    -1     0     0   512   502  0.000000000E+00  0.000000000E+00 -1.005174118E+03  1.005174118E+03  0.000000000E+00  0.00000E+00  9.000E+00
      25     1     1     2     0     0 -2.821024605E+02  1.502277707E+01 -4.539470621E+02  5.490905364E+02  1.250000000E+02  0.00000E+00  9.000E+00
      25     1     1     2     0     0  1.254771375E+01  4.454511137E+01  1.063750168E+02  1.705354986E+02  1.250000000E+02  0.00000E+00  9.000E+00
      21     1     1     2   512   501  2.695547468E+02 -5.956788844E+01 -4.311742501E+02  5.119759065E+02  0.000000000E+00  0.00000E+00  9.000E+00
#rwgt            2          11   1.2081291862607768E-003           8      144089           0
</event>
<event>
      5   9999  3.79277E-02  4.61253E+01 -1.00000E+00  1.41104E-01
      21    -1     0     0   502   501  0.000000000E+00  0.000000000E+00  4.399382834E+02  4.399382834E+02  0.000000000E+00  0.00000E+00  9.000E+00
       2    -1     0     0   501     0  0.000000000E+00  0.000000000E+00 -8.719711378E+02  8.719711378E+02  0.000000000E+00  0.00000E+00  9.000E+00
      25     1     1     2     0     0  1.126965770E+02  1.163396179E+02  1.977221381E+02  2.845249885E+02  1.250000000E+02  0.00000E+00  9.000E+00
      25     1     1     2     0     0 -1.346676851E+02 -7.578332633E+01  1.482866990E+02  2.479766986E+02  1.250000000E+02  0.00000E+00  9.000E+00
       2     1     1     2   502     0  2.197110810E+01 -4.055629160E+01 -7.780416915E+02  7.794077341E+02  0.000000000E+00  0.00000E+00  9.000E+00
#rwgt            1           1   4.2288634367954242E-002           8      144154           0
</event>
<event>
      5   9999  3.79277E-02  2.44201E+01 -1.00000E+00  1.59518E-01
      21    -1     0     0   502   501  0.000000000E+00  0.000000000E+00  7.559020333E+02  7.559020333E+02  0.000000000E+00  0.00000E+00  9.000E+00
      21    -1     0     0   511   502  0.000000000E+00  0.000000000E+00 -6.080551712E+02  6.080551712E+02  0.000000000E+00  0.00000E+00  9.000E+00
      25     1     1     2     0     0 -2.035565103E+01 -3.507905863E+02  1.866989952E+02  4.170730185E+02  1.250000000E+02  0.00000E+00  9.000E+00
      25     1     1     2     0     0 -3.589538004E+00  3.555830987E+02  3.753608039E+02  5.319520260E+02  1.250000000E+02  0.00000E+00  9.000E+00
      21     1     1     2   511   501  2.394518904E+01 -4.792512339E+00 -4.142129370E+02  4.149321600E+02  7.629394531E-06  0.00000E+00  9.000E+00
#rwgt            1           1   2.5273822079963017E-002           8      144312           0
</event>
<event>
      5   9999  3.79277E-02  9.54016E+00 -1.00000E+00  1.98151E-01
      21    -1     0     0   502   512  0.000000000E+00  0.000000000E+00  6.381844193E+02  6.381844193E+02  0.000000000E+00  0.00000E+00  9.000E+00
      21    -1     0     0   501   502  0.000000000E+00  0.000000000E+00 -7.551635593E+01  7.551635593E+01  0.000000000E+00  0.00000E+00  9.000E+00
      25     1     1     2     0     0 -1.334659343E+02  1.075854965E+02  2.940756979E+02  3.626200640E+02  1.250000000E+02  0.00000E+00  9.000E+00
      25     1     1     2     0     0  1.318468449E+02 -1.169872573E+02  2.521932716E+02  3.321084990E+02  1.250000000E+02  0.00000E+00  9.000E+00
      21     1     1     2   501   512  1.619089425E+00  9.401760869E+00  1.639909387E+01  1.897221226E+01  2.384185791E-07  0.00000E+00  9.000E+00
#rwgt            1           1   4.5390605520561504E-002           8      144473           0
</event>
<event>
      5   9999 -3.79277E-02  9.69825E+00 -1.00000E+00  1.97308E-01
      21    -1     0     0   502   501  0.000000000E+00  0.000000000E+00  3.846181756E+02  3.846181756E+02  0.000000000E+00  0.00000E+00  9.000E+00
      21    -1     0     0   501   511  0.000000000E+00  0.000000000E+00 -1.544039261E+02  1.544039261E+02  0.000000000E+00  0.00000E+00  9.000E+00
      25     1     1     2     0     0 -1.207071685E+02  1.183008620E+02  2.299331557E+02  3.115438502E+02  1.250000000E+02  0.00000E+00  9.000E+00
      25     1     1     2     0     0  1.292070384E+02 -1.136309306E+02  1.107799659E+01  2.129651830E+02  1.250000000E+02  0.00000E+00  9.000E+00
      21     1     1     2   502   511 -8.499869839E+00 -4.669931396E+00 -1.079690280E+01  1.451306847E+01  2.665600750E-07  0.00000E+00  9.000E+00
#rwgt            1           1  -2.0166877253079637E-002           8      144686           0
</event>
<event>
      5   9999  3.79277E-02  2.08788E+01 -1.00000E+00  1.64843E-01
      21    -1     0     0   502   501  0.000000000E+00  0.000000000E+00  1.907908338E+03  1.907908338E+03  0.000000000E+00  0.00000E+00  9.000E+00
      21    -1     0     0   512   502  0.000000000E+00  0.000000000E+00 -1.770437416E+01  1.770437416E+01  0.000000000E+00  0.00000E+00  9.000E+00
      25     1     1     2     0     0 -7.672749474E+01  8.213117051E+01  1.111732657E+03  1.124369663E+03  1.250000000E+02  0.00000E+00  9.000E+00
      25     1     1     2     0     0  9.038416970E+01 -6.633815780E+01  7.138419601E+02  7.333248893E+02  1.250000000E+02  0.00000E+00  9.000E+00
      21     1     1     2   512   501 -1.365667496E+01 -1.579301271E+01  6.462934635E+01  6.791815980E+01  1.651812370E-06  0.00000E+00  9.000E+00
#rwgt            1           1  0.10909930615259526                8      144980           0
</event>
<event>
      5   9999  3.79277E-02  1.53237E+01 -1.00000E+00  1.76514E-01
      21    -1     0     0   502   501  0.000000000E+00  0.000000000E+00  8.335946573E+01  8.335946573E+01  0.000000000E+00  0.00000E+00  9.000E+00
       2    -1     0     0   501     0  0.000000000E+00  0.000000000E+00 -1.916833538E+03  1.916833538E+03  0.000000000E+00  0.00000E+00  9.000E+00
      25     1     1     2     0     0  9.820373262E+00  1.075293637E+02 -3.157933429E+02  3.563838369E+02  1.250000000E+02  0.00000E+00  9.000E+00
      25     1     1     2     0     0  5.390979147E+00 -1.056771381E+02 -4.336978578E+01  1.694185895E+02  1.250000000E+02  0.00000E+00  9.000E+00
       2     1     1     2   502     0 -1.521135241E+01 -1.852225629E+00 -1.474310944E+03  1.474390578E+03  0.000000000E+00  0.00000E+00  9.000E+00
#rwgt            1           1   4.4326057881995666E-002           8      145220           0
</event>
<event>
      5   9999  3.79277E-02  2.73513E+01 -1.00000E+00  1.55881E-01
      21    -1     0     0   502   501  0.000000000E+00  0.000000000E+00  5.467473702E+02  5.467473702E+02  0.000000000E+00  0.00000E+00  9.000E+00
      -1    -1     0     0     0   502  0.000000000E+00  0.000000000E+00 -6.049503293E+02  6.049503293E+02  0.000000000E+00  0.00000E+00  9.000E+00
      25     1     1     2     0     0 -9.113602424E+01 -1.047601939E+02  4.326109193E+02  4.712299658E+02  1.250000000E+02  0.00000E+00  9.000E+00
      25     1     1     2     0     0  7.797352362E+01  8.078435578E+01  1.974480998E+01  1.691769489E+02  1.250000000E+02  0.00000E+00  9.000E+00
      -1     1     1     2     0   501  1.316250062E+01  2.397583809E+01 -5.105586884E+02  5.112907847E+02  0.000000000E+00  0.00000E+00  9.000E+00
#rwgt            1           1   3.6030024003330288E-002           8      145329           0
</event>
<event>
      5   9999  3.79277E-02  3.27273E+01 -1.00000E+00  1.50461E-01
      21    -1     0     0   502   501  0.000000000E+00  0.000000000E+00  6.671622855E+01  6.671622855E+01  0.000000000E+00  0.00000E+00  9.000E+00
      21    -1     0     0   501   511  0.000000000E+00  0.000000000E+00 -8.599760281E+02  8.599760281E+02  0.000000000E+00  0.00000E+00  9.000E+00
      25     1     1     2     0     0 -1.107840690E+02  1.043057111E+02 -2.087996300E+02  2.870105866E+02  1.250000000E+02  0.00000E+00  9.000E+00
      25     1     1     2     0     0  1.423874378E+02 -1.128089820E+02 -4.476912783E+02  4.990516301E+02  1.250000000E+02  0.00000E+00  9.000E+00
      21     1     1     2   502   511 -3.160336871E+01  8.503270934E+00 -1.367688912E+02  1.406300400E+02  1.907348633E-06  0.00000E+00  9.000E+00
#rwgt            1           1   3.7299419278996514E-002           8      145505           0
</event>
<event>
      5   9999  3.79277E-02  1.38910E+02 -1.00000E+00  1.17731E-01
      21    -1     0     0   502   501  0.000000000E+00  0.000000000E+00  7.161981031E+01  7.161981031E+01  0.000000000E+00  0.00000E+00  9.000E+00
      21    -1     0     0   512   502  0.000000000E+00  0.000000000E+00 -1.403053373E+03  1.403053373E+03  0.000000000E+00  0.00000E+00  9.000E+00
      25     1     1     2     0     0 -1.358533707E+02 -7.092108421E+01 -1.146470597E+02  2.285932781E+02  1.250000000E+02  0.00000E+00  9.000E+00
      25     1     1     2     0     0  6.638772354E+00  1.993485095E+01 -6.729321918E+02  6.847658040E+02  1.250000000E+02  0.00000E+00  9.000E+00
      21     1     1     2   512   501  1.292145983E+02  5.098623326E+01 -5.438543111E+02  5.613141011E+02  7.629394531E-06  0.00000E+00  9.000E+00
#rwgt            1           1   2.5165721343351620E-002           8      145645           0
</event>
<event>
      5   9999 -3.79277E-02  1.11976E+02 -1.00000E+00  1.21658E-01
      21    -1     0     0   502   501  0.000000000E+00  0.000000000E+00  1.056196509E+03  1.056196509E+03  0.000000000E+00  0.00000E+00  9.000E+00
      21    -1     0     0   511   502  0.000000000E+00  0.000000000E+00 -7.850115336E+01  7.850115336E+01  0.000000000E+00  0.00000E+00  9.000E+00
      25     1     1     2     0     0 -1.552409141E+02  3.541385657E+01  2.911145592E+02  3.545794258E+02  1.250000000E+02  0.00000E+00  9.000E+00
      25     1     1     2     0     0  1.297993557E+02 -1.444614027E+02  5.849643005E+02  6.289079443E+02  1.250000000E+02  0.00000E+00  9.000E+00
      21     1     1     2   511   501  2.544155835E+01  1.090475461E+02  1.016164958E+02  1.512102921E+02  3.303624740E-06  0.00000E+00  9.000E+00
#rwgt            1           1  -8.9793388679205707E-002           8      145720           0
</event>
<event>
      5   9999  3.79277E-02  1.65952E+01 -1.00000E+00  1.73346E-01
      21    -1     0     0   502   512  0.000000000E+00  0.000000000E+00  8.464259690E+02  8.464259690E+02  0.000000000E+00  0.00000E+00  9.000E+00
      21    -1     0     0   501   502  0.000000000E+00  0.000000000E+00 -6.912854836E+01  6.912854836E+01  0.000000000E+00  0.00000E+00  9.000E+00
      25     1     1     2     0     0  5.411130448E+01 -1.733256265E+02  2.963757176E+02  3.693688835E+02  1.250000000E+02  0.00000E+00  9.000E+00
      25     1     1     2     0     0 -6.112473774E+01  1.883660126E+02  3.994166268E+02  4.630082396E+02  1.250000000E+02  0.00000E+00  9.000E+00
      21     1     1     2   501   512  7.013433256E+00 -1.504038604E+01  8.150507623E+01  8.317739422E+01  1.651812370E-06  0.00000E+00  9.000E+00
#rwgt            1           1   4.2580922391560784E-002           8      145780           0
</event>
<event>
      5   9999  3.79277E-02  1.15963E+01 -1.00000E+00  1.88604E-01
      21    -1     0     0   502   501  0.000000000E+00  0.000000000E+00  1.869986619E+01  1.869986619E+01  0.000000000E+00  0.00000E+00  9.000E+00
      21    -1     0     0   511   502  0.000000000E+00  0.000000000E+00 -1.086671741E+03  1.086671741E+03  0.000000000E+00  0.00000E+00  9.000E+00
      25     1     1     2     0     0 -4.703890785E+01 -1.439837925E+00 -4.385268945E+02  4.584163710E+02  1.250000000E+02  0.00000E+00  9.000E+00
      25     1     1     2     0     0  5.766705013E+01 -3.198808373E+00 -5.707226710E+02  5.870988743E+02  1.250000000E+02  0.00000E+00  9.000E+00
      21     1     1     2   511   501 -1.062814228E+01  4.638646298E+00 -5.872230956E+01  5.985636213E+01  0.000000000E+00  0.00000E+00  9.000E+00
#rwgt            1           1   2.4720956458489589E-002           8      145945           0
</event>
<event>
      5   9999  3.79277E-02  3.49070E+01 -1.00000E+00  1.48606E-01
      21    -1     0     0   502   501  0.000000000E+00  0.000000000E+00  3.585244648E+02  3.585244648E+02  0.000000000E+00  0.00000E+00  9.000E+00
      21    -1     0     0   512   502  0.000000000E+00  0.000000000E+00 -2.400570899E+02  2.400570899E+02  0.000000000E+00  0.00000E+00  9.000E+00
      25     1     1     2     0     0 -6.766154896E+01  2.165022707E+02 -2.967736531E-01  2.589911321E+02  1.250000000E+02  0.00000E+00  9.000E+00
      25     1     1     2     0     0  9.693676714E+01 -1.974901644E+02  1.488001896E+02  2.935397729E+02  1.250000000E+02  0.00000E+00  9.000E+00
      21     1     1     2   512   501 -2.927521818E+01 -1.901210630E+01 -3.003604095E+01  4.605064974E+01  4.768371582E-07  0.00000E+00  9.000E+00
#rwgt            1           1   3.3710221310918435E-002           8      146381           0
</event>
<event>
      5   9999  3.79277E-02  3.18849E+01 -1.00000E+00  1.51224E-01
      21    -1     0     0   502   501  0.000000000E+00  0.000000000E+00  2.442629855E+01  2.442629855E+01  0.000000000E+00  0.00000E+00  9.000E+00
      21    -1     0     0   501   511  0.000000000E+00  0.000000000E+00 -3.203696148E+03  3.203696148E+03  0.000000000E+00  0.00000E+00  9.000E+00
      25     1     1     2     0     0  1.454259685E+02  3.033186662E+01 -1.870769025E+03  1.880816440E+03  1.250000000E+02  0.00000E+00  9.000E+00
      25     1     1     2     0     0 -1.417764716E+02 -6.200719673E+01 -4.991564480E+02  5.373338068E+02  1.250000000E+02  0.00000E+00  9.000E+00
      21     1     1     2   502   511 -3.649496876E+00  3.167533011E+01 -8.093443766E+02  8.099722004E+02  1.078959322E-05  0.00000E+00  9.000E+00
#rwgt            1           1   8.7833317881256090E-002           8      146643           0
</event>
<event>
      5   9999  3.79277E-02  4.28759E+01 -1.00000E+00  1.42995E-01
      21    -1     0     0   512   501  0.000000000E+00  0.000000000E+00  5.285606979E+01  5.285606979E+01  0.000000000E+00  0.00000E+00  9.000E+00
      21    -1     0     0   501   502  0.000000000E+00  0.000000000E+00 -2.010712573E+03  2.010712573E+03  0.000000000E+00  0.00000E+00  9.000E+00
      25     1     1     2     0     0 -3.620289740E+01  1.669299298E+02 -1.012617152E+03  1.034502174E+03  1.250000000E+02  0.00000E+00  9.000E+00
      25     1     1     2     0     0  7.614823869E+01 -1.825092870E+02 -9.565333344E+02  9.847279898E+02  1.250000000E+02  0.00000E+00  9.000E+00
      21     1     1     2   512   502 -3.994534128E+01  1.557935719E+01  1.129398331E+01  4.433847899E+01  8.172577143E-07  0.00000E+00  9.000E+00
#rwgt            1           1  0.10855253099990864                8      146742           0
</event>
<event>
      5   9999  3.79277E-02  5.06688E+01 -1.00000E+00  1.38747E-01
      21    -1     0     0   511   501  0.000000000E+00  0.000000000E+00  5.699207482E+02  5.699207482E+02  0.000000000E+00  0.00000E+00  9.000E+00
      21    -1     0     0   501   502  0.000000000E+00  0.000000000E+00 -1.352913883E+02  1.352913883E+02  0.000000000E+00  0.00000E+00  9.000E+00
      25     1     1     2     0     0  1.622185424E+02  2.128079378E+00  9.691600778E+00  2.050324641E+02  1.250000000E+02  0.00000E+00  9.000E+00
      25     1     1     2     0     0 -1.254514992E+02  3.273615220E+01  1.979995411E+02  2.676537924E+02  1.250000000E+02  0.00000E+00  9.000E+00
      21     1     1     2   511   502 -3.676704322E+01 -3.486423158E+01  2.269382180E+02  2.325258800E+02  2.697398305E-06  0.00000E+00  9.000E+00
#rwgt            1           1   4.2499571602946727E-002           8      146894           0
</event>
<event>
      5   9999  3.79277E-02  9.91805E+00 -1.00000E+00  1.96171E-01
      21    -1     0     0   502   512  0.000000000E+00  0.000000000E+00  6.992164851E+01  6.992164851E+01  0.000000000E+00  0.00000E+00  9.000E+00
      21    -1     0     0   501   502  0.000000000E+00  0.000000000E+00 -6.175301830E+02  6.175301830E+02  0.000000000E+00  0.00000E+00  9.000E+00
      25     1     1     2     0     0  8.131338522E+00 -1.258508503E+02 -1.166110306E+02  2.124327838E+02  1.250000000E+02  0.00000E+00  9.000E+00
      25     1     1     2     0     0 -1.599648478E+01  1.198087301E+02 -4.313670320E+02  4.650941148E+02  1.250000000E+02  0.00000E+00  9.000E+00
      21     1     1     2   501   512  7.865146258E+00  6.042120167E+00  3.695281248E-01  9.924932887E+00  2.289159819E-07  0.00000E+00  9.000E+00
#rwgt            1           1   3.4689161427641342E-002           8      147030           0
</event>
<event>
      5   9999  3.79277E-02  2.45789E+01 -1.00000E+00  1.59305E-01
      21    -1     0     0   502   501  0.000000000E+00  0.000000000E+00  5.572409562E+02  5.572409562E+02  0.000000000E+00  0.00000E+00  9.000E+00
      21    -1     0     0   501   511  0.000000000E+00  0.000000000E+00 -6.291603501E+02  6.291603501E+02  0.000000000E+00  0.00000E+00  9.000E+00
      25     1     1     2     0     0 -2.269824877E+02  4.793985713E+02  1.325019230E+02  5.608259976E+02  1.250000000E+02  0.00000E+00  9.000E+00
      25     1     1     2     0     0  2.142844794E+02 -5.004433650E+02 -1.711125276E+02  5.841796785E+02  1.250000000E+02  0.00000E+00  9.000E+00
      21     1     1     2   502   511  1.269800828E+01  2.104479367E+01 -3.330878931E+01  4.139563021E+01  4.768371582E-07  0.00000E+00  9.000E+00
#rwgt            1           1   5.4285746464282379E-002           8      147242           0
</event>
<event>
      5   9999  3.79277E-02  1.11742E+02 -1.00000E+00  1.21697E-01
      21    -1     0     0   512   501  0.000000000E+00  0.000000000E+00  1.951973547E+02  1.951973547E+02  0.000000000E+00  0.00000E+00  9.000E+00
      21    -1     0     0   501   502  0.000000000E+00  0.000000000E+00 -4.892792049E+02  4.892792049E+02  0.000000000E+00  0.00000E+00  9.000E+00
      25     1     1     2     0     0  1.422247722E+02  3.176359258E+01 -3.190548016E+01  1.946272625E+02  1.250000000E+02  0.00000E+00  9.000E+00
      25     1     1     2     0     0 -2.024248470E+02  6.237607003E+01 -2.843158231E+02  3.759349413E+02  1.250000000E+02  0.00000E+00  9.000E+00
      21     1     1     2   512   502  6.020007485E+01 -9.413966261E+01  2.213945297E+01  1.139143558E+02  8.259061849E-07  0.00000E+00  9.000E+00
#rwgt            1           1   3.7217542376548306E-002           8      147442           0
</event>
<event>
      5   9999  3.79277E-02  7.41617E+01 -1.00000E+00  1.29963E-01
      21    -1     0     0   502   501  0.000000000E+00  0.000000000E+00  5.857484553E+01  5.857484553E+01  0.000000000E+00  0.00000E+00  9.000E+00
       2    -1     0     0   501     0  0.000000000E+00  0.000000000E+00 -1.471629851E+03  1.471629851E+03  0.000000000E+00  0.00000E+00  9.000E+00
      25     1     1     2     0     0 -2.561386329E+00  5.911498104E+01 -8.173602336E+02  8.289776192E+02  1.250000000E+02  0.00000E+00  9.000E+00
      25     1     1     2     0     0  7.512887085E+01 -4.382036476E+01 -6.533161351E+01  1.657039267E+02  1.250000000E+02  0.00000E+00  9.000E+00
       2     1     1     2   502     0 -7.256748452E+01 -1.529461628E+01 -5.303631586E+02  5.355231509E+02  7.629394531E-06  0.00000E+00  9.000E+00
#rwgt            1           1   3.6769575454725423E-002           8      147518           0
</event>
<event>
      5   9999  3.79277E-02  3.95399E+01 -1.00000E+00  1.45152E-01
      21    -1     0     0   502   501  0.000000000E+00  0.000000000E+00  7.044571307E+02  7.044571307E+02  0.000000000E+00  0.00000E+00  9.000E+00
      -4    -1     0     0     0   502  0.000000000E+00  0.000000000E+00 -3.510907017E+02  3.510907017E+02  0.000000000E+00  0.00000E+00  9.000E+00
      25     1     1     2     0     0 -9.829789148E+01 -5.795694181E+01  5.567559139E+02  5.819137653E+02  1.250000000E+02  0.00000E+00  9.000E+00
      25     1     1     2     0     0  5.909066512E+01  5.283869089E+01  9.287615068E+01  1.747415615E+02  1.250000000E+02  0.00000E+00  9.000E+00
      -4     1     1     2     0   501  3.920722637E+01  5.118250921E+00 -2.962656355E+02  2.988925056E+02  3.814697266E-06  0.00000E+00  9.000E+00
#rwgt            1           1   3.9251722317117391E-002           8      147612           0
</event>
<event>
      5   9999 -3.79277E-02  5.81048E+01 -1.00000E+00  1.35453E-01
      21    -1     0     0   502   501  0.000000000E+00  0.000000000E+00  3.496778230E+02  3.496778230E+02  0.000000000E+00  0.00000E+00  9.000E+00
      21    -1     0     0   511   502  0.000000000E+00  0.000000000E+00 -1.639372475E+02  1.639372475E+02  0.000000000E+00  0.00000E+00  9.000E+00
      25     1     1     2     0     0  1.494601584E+02  5.223322070E+01  9.672127517E+01  2.237110936E+02  1.250000000E+02  0.00000E+00  9.000E+00
      25     1     1     2     0     0 -1.187821192E+02 -1.015791928E+02  1.097044469E+02  2.282270579E+02  1.250000000E+02  0.00000E+00  9.000E+00
      21     1     1     2   511   501 -3.067803921E+01  4.934597213E+01 -2.068514660E+01  6.167691906E+01  6.743495762E-07  0.00000E+00  9.000E+00
#rwgt            1           1 -0.20192209020197721                8      147765           0
</event>
<event>
      5   9999  3.79277E-02  1.35763E+01 -1.00000E+00  1.81563E-01
      21    -1     0     0   502   512  0.000000000E+00  0.000000000E+00  6.342638769E+02  6.342638769E+02  0.000000000E+00  0.00000E+00  9.000E+00
      21    -1     0     0   501   502  0.000000000E+00  0.000000000E+00 -3.421621877E+02  3.421621877E+02  0.000000000E+00  0.00000E+00  9.000E+00
      25     1     1     2     0     0 -1.831514870E+02 -2.195933363E+00  3.719754626E+02  4.330589268E+02  1.250000000E+02  0.00000E+00  9.000E+00
      25     1     1     2     0     0  1.904596546E+02 -9.245548116E+00 -2.696397921E+02  3.531160966E+02  1.250000000E+02  0.00000E+00  9.000E+00
      21     1     1     2   501   512 -7.308167658E+00  1.144148148E+01  1.897660188E+02  1.902510412E+02  2.697398305E-06  0.00000E+00  9.000E+00
#rwgt            1           1   4.9402407857544288E-002           8      148126           0
</event>
<event>
      5   9999  3.79277E-02  3.10113E+01 -1.00000E+00  1.52046E-01
      21    -1     0     0   511   501  0.000000000E+00  0.000000000E+00  1.430833704E+02  1.430833704E+02  0.000000000E+00  0.00000E+00  9.000E+00
      21    -1     0     0   501   502  0.000000000E+00  0.000000000E+00 -5.018431834E+02  5.018431834E+02  0.000000000E+00  0.00000E+00  9.000E+00
      25     1     1     2     0     0  1.653967401E+02  6.393975460E+00 -1.276881188E+02  2.435697441E+02  1.250000000E+02  0.00000E+00  9.000E+00
      25     1     1     2     0     0 -1.788030511E+02  2.156973965E+01 -2.724169675E+02  3.496738322E+02  1.250000000E+02  0.00000E+00  9.000E+00
      21     1     1     2   511   502  1.340631105E+01 -2.796371511E+01  4.134527335E+01  5.168297754E+01  1.261592536E-06  0.00000E+00  9.000E+00
#rwgt            1           1   3.6134390452299041E-002           8      148357           0
</event>
<event>
      5   9999  3.79277E-02  7.57636E+01 -1.00000E+00  1.29504E-01
      21    -1     0     0   502   501  0.000000000E+00  0.000000000E+00  1.251473704E+03  1.251473704E+03  0.000000000E+00  0.00000E+00  9.000E+00
      21    -1     0     0   501   512  0.000000000E+00  0.000000000E+00 -4.909506468E+01  4.909506468E+01  0.000000000E+00  0.00000E+00  9.000E+00
      25     1     1     2     0     0  6.110713204E+01 -5.814086361E+01  2.449675163E+02  2.876604346E+02  1.250000000E+02  0.00000E+00  9.000E+00
      25     1     1     2     0     0 -1.346286854E+02  7.643578689E+01  8.884514923E+02  9.104605244E+02  1.250000000E+02  0.00000E+00  9.000E+00
      21     1     1     2   502   512  7.352155336E+01 -1.829492328E+01  6.895963084E+01  1.024478097E+02  9.536743164E-07  0.00000E+00  9.000E+00
#rwgt            1           1   4.0104590114354445E-002           8      148508           0
</event>
<event>
      5   9999  3.79277E-02  1.04104E+02 -1.00000E+00  1.23047E-01
      21    -1     0     0   502   501  0.000000000E+00  0.000000000E+00  1.151182272E+03  1.151182272E+03  0.000000000E+00  0.00000E+00  9.000E+00
      21    -1     0     0   501   511  0.000000000E+00  0.000000000E+00 -1.057522747E+02  1.057522747E+02  0.000000000E+00  0.00000E+00  9.000E+00
      25     1     1     2     0     0  7.309430330E+01  1.244058598E+02  9.968415251E+02  1.014956955E+03  1.250000000E+02  0.00000E+00  9.000E+00
      25     1     1     2     0     0 -1.103920208E+01 -4.081885115E+01  3.808874726E+01  1.373455324E+02  1.250000000E+02  0.00000E+00  9.000E+00
      21     1     1     2   502   511 -6.205510122E+01 -8.358700863E+01  1.049972519E+01  1.046320593E+02  2.689484161E-06  0.00000E+00  9.000E+00
#rwgt            1           1   3.5077055316571286E-002           8      148600           0
</event>
<event>
      5   9999  3.79277E-02  2.47518E+01 -1.00000E+00  1.59076E-01
      -2    -1     0     0     0   501  0.000000000E+00  0.000000000E+00  2.254948954E+03  2.254948954E+03  0.000000000E+00  0.00000E+00  9.000E+00
      21    -1     0     0   501   502  0.000000000E+00  0.000000000E+00 -1.667046041E+02  1.667046041E+02  0.000000000E+00  0.00000E+00  9.000E+00
      25     1     1     2     0     0  1.988832011E+01 -3.684101988E+00 -1.304444626E+02  1.817962478E+02  1.250000000E+02  0.00000E+00  9.000E+00
      25     1     1     2     0     0 -2.989711563E+01 -1.895378753E+01  3.913420146E+02  4.123428864E+02  1.250000000E+02  0.00000E+00  9.000E+00
      -2     1     1     2     0   502  1.000879552E+01  2.263788951E+01  1.827346798E+03  1.827514424E+03  3.737624730E-05  0.00000E+00  9.000E+00
#rwgt            1           1   5.2555005345484025E-002           8      148755           0
</event>
<event>
      5   9999  3.79277E-02  1.75558E+01 -1.00000E+00  1.71179E-01
      21    -1     0     0   502   501  0.000000000E+00  0.000000000E+00  1.928062971E+02  1.928062971E+02  0.000000000E+00  0.00000E+00  9.000E+00
      21    -1     0     0   501   511  0.000000000E+00  0.000000000E+00 -1.863820010E+02  1.863820010E+02  0.000000000E+00  0.00000E+00  9.000E+00
      25     1     1     2     0     0 -4.853927073E+01  6.752030180E+00 -4.202409818E+01  1.406864441E+02  1.250000000E+02  0.00000E+00  9.000E+00
      25     1     1     2     0     0  5.813197089E+01 -2.145526378E+01  1.079893687E+02  1.764266367E+02  1.250000000E+02  0.00000E+00  9.000E+00
      21     1     1     2   502   511 -9.592700156E+00  1.470323360E+01 -5.954097442E+01  6.207521735E+01  6.743495762E-07  0.00000E+00  9.000E+00
#rwgt            1           1   3.5233129057052601E-002           8      148887           0
</event>
<event>
      5   9999  3.79277E-02  2.35674E+01 -1.00000E+00  1.60695E-01
      21    -1     0     0   502   501  0.000000000E+00  0.000000000E+00  4.085507228E+02  4.085507228E+02  0.000000000E+00  0.00000E+00  9.000E+00
      21    -1     0     0   501   512  0.000000000E+00  0.000000000E+00 -1.302142625E+02  1.302142625E+02  0.000000000E+00  0.00000E+00  9.000E+00
      25     1     1     2     0     0  1.069558979E+01 -7.148828157E+01  2.975249561E+02  3.307129716E+02  1.250000000E+02  0.00000E+00  9.000E+00
      25     1     1     2     0     0 -8.291424729E+00  4.804377993E+01  4.352653914E+01  1.410549968E+02  1.250000000E+02  0.00000E+00  9.000E+00
      21     1     1     2   502   512 -2.404165066E+00  2.344450165E+01 -6.271503495E+01  6.699701692E+01  1.168007728E-06  0.00000E+00  9.000E+00
#rwgt            1           1   4.3578853650348338E-002           8      149037           0
</event>
<event>
      5   9999  3.79277E-02  2.07409E+01 -1.00000E+00  1.65076E-01
      21    -1     0     0   502   501  0.000000000E+00  0.000000000E+00  1.147529234E+02  1.147529234E+02  0.000000000E+00  0.00000E+00  9.000E+00
      21    -1     0     0   511   502  0.000000000E+00  0.000000000E+00 -6.446416966E+02  6.446416966E+02  0.000000000E+00  0.00000E+00  9.000E+00
      25     1     1     2     0     0  6.107907455E+01  1.994231844E+02 -3.237879810E+02  4.049245812E+02  1.250000000E+02  0.00000E+00  9.000E+00
      25     1     1     2     0     0 -4.374701127E+01 -1.880308115E+02 -1.077883043E+02  2.539935149E+02  1.250000000E+02  0.00000E+00  9.000E+00
      21     1     1     2   511   501 -1.733206328E+01 -1.139237292E+01 -9.831248784E+01  1.004765238E+02  0.000000000E+00  0.00000E+00  9.000E+00
#rwgt            1           1   3.4003978942136685E-002           8      149201           0
</event>
<event>
      5   9999  3.79277E-02  5.75178E+01 -1.00000E+00  1.35691E-01
      21    -1     0     0   502   501  0.000000000E+00  0.000000000E+00  2.871561023E+02  2.871561023E+02  0.000000000E+00  0.00000E+00  9.000E+00
      21    -1     0     0   512   502  0.000000000E+00  0.000000000E+00 -4.519179124E+02  4.519179124E+02  0.000000000E+00  0.00000E+00  9.000E+00
      25     1     1     2     0     0 -1.229064729E+02  1.872208250E+02 -1.499216957E+02  2.970844210E+02  1.250000000E+02  0.00000E+00  9.000E+00
      25     1     1     2     0     0  1.783007622E+02 -2.027054351E+02  9.974804348E+01  3.137759191E+02  1.250000000E+02  0.00000E+00  9.000E+00
      21     1     1     2   512   501 -5.539428934E+01  1.548461003E+01 -1.145881578E+02  1.282136746E+02  1.907348633E-06  0.00000E+00  9.000E+00
#rwgt            1           1   3.4892500887817722E-002           8      149617           0
</event>
<event>
      5   9999  3.79277E-02  4.24722E+01 -1.00000E+00  1.43243E-01
      21    -1     0     0   511   501  0.000000000E+00  0.000000000E+00  2.078088987E+02  2.078088987E+02  0.000000000E+00  0.00000E+00  9.000E+00
      21    -1     0     0   501   502  0.000000000E+00  0.000000000E+00 -1.777231644E+02  1.777231644E+02  0.000000000E+00  0.00000E+00  9.000E+00
      25     1     1     2     0     0 -1.949288775E+01  2.609586074E+01  1.210777312E+02  1.770474050E+02  1.250000000E+02  0.00000E+00  9.000E+00
      25     1     1     2     0     0 -1.621593388E+01 -3.100830094E+00 -1.046639248E+02  1.638661307E+02  1.250000000E+02  0.00000E+00  9.000E+00
      21     1     1     2   511   502  3.570882163E+01 -2.299503065E+01  1.367192796E+01  4.461852744E+01  3.769728732E-07  0.00000E+00  9.000E+00
#rwgt            1           1   4.9759383499627233E-002           8      149726           0
</event>
<event>
      5   9999  3.79277E-02  2.94464E+01 -1.00000E+00  1.53604E-01
      21    -1     0     0   512   501  0.000000000E+00  0.000000000E+00  2.704559956E+02  2.704559956E+02  0.000000000E+00  0.00000E+00  9.000E+00
      21    -1     0     0   501   502  0.000000000E+00  0.000000000E+00 -1.787758019E+02  1.787758019E+02  0.000000000E+00  0.00000E+00  9.000E+00
      25     1     1     2     0     0  4.755922508E+01  1.052463795E+02  1.285466499E+02  2.132789757E+02  1.250000000E+02  0.00000E+00  9.000E+00
      25     1     1     2     0     0 -7.406915434E+01 -9.242793076E+01 -7.495457954E+01  1.878093475E+02  1.250000000E+02  0.00000E+00  9.000E+00
      21     1     1     2   512   502  2.650992926E+01 -1.281844870E+01  3.808812335E+01  4.814347429E+01  0.000000000E+00  0.00000E+00  9.000E+00
#rwgt            1           1  0.10627505737230518                8      149925           0
</event>
<event>
      5   9999  3.79277E-02  3.07418E+01 -1.00000E+00  1.52307E-01
      21    -1     0     0   511   501  0.000000000E+00  0.000000000E+00  5.637114702E+01  5.637114702E+01  0.000000000E+00  0.00000E+00  9.000E+00
      21    -1     0     0   501   502  0.000000000E+00  0.000000000E+00 -9.072947610E+02  9.072947610E+02  0.000000000E+00  0.00000E+00  9.000E+00
      25     1     1     2     0     0 -9.767282736E+01 -1.024494301E+02 -2.803002911E+02  3.379779876E+02  1.250000000E+02  0.00000E+00  9.000E+00
      25     1     1     2     0     0  8.569292419E+01  7.413798986E+01 -5.705225850E+02  5.949459966E+02  1.250000000E+02  0.00000E+00  9.000E+00
      21     1     1     2   511   502  1.197990317E+01  2.831144027E+01 -1.007378159E-01  3.074192379E+01  9.558809262E-07  0.00000E+00  9.000E+00
#rwgt            2          11   1.1003697772978003E-003           8      150199           0
</event>
<event>
      5   9999  3.79277E-02  1.75906E+01 -1.00000E+00  1.71104E-01
      21    -1     0     0   502   512  0.000000000E+00  0.000000000E+00  1.043100179E+02  1.043100179E+02  0.000000000E+00  0.00000E+00  9.000E+00
      21    -1     0     0   501   502  0.000000000E+00  0.000000000E+00 -9.361303085E+02  9.361303085E+02  0.000000000E+00  0.00000E+00  9.000E+00
      25     1     1     2     0     0  2.460494588E+02  9.520789428E+01 -5.297978013E+02  6.049095714E+02  1.250000000E+02  0.00000E+00  9.000E+00
      25     1     1     2     0     0 -2.388289342E+02 -7.916749067E+01 -3.080603233E+02  4.169327454E+02  1.250000000E+02  0.00000E+00  9.000E+00
      21     1     1     2   501   512 -7.220524599E+00 -1.604040361E+01  6.037833961E+00  1.859800964E+01  3.576278687E-07  0.00000E+00  9.000E+00
#rwgt            1           1  0.34386814790369591                8      150219           0
</event>
<event>
      5   9999  3.79277E-02  4.35305E+01 -1.00000E+00  1.42598E-01
      21    -1     0     0   502   501  0.000000000E+00  0.000000000E+00  5.210252208E+02  5.210252208E+02  0.000000000E+00  0.00000E+00  9.000E+00
      21    -1     0     0   501   511  0.000000000E+00  0.000000000E+00 -1.575937985E+02  1.575937985E+02  0.000000000E+00  0.00000E+00  9.000E+00
      25     1     1     2     0     0  2.034747522E+02 -8.895506062E+01  1.171323409E+02  2.804638353E+02  1.250000000E+02  0.00000E+00  9.000E+00
      25     1     1     2     0     0 -1.885895208E+02  4.804864563E+01  2.641512708E+02  3.511062141E+02  1.250000000E+02  0.00000E+00  9.000E+00
      21     1     1     2   502   511 -1.488523142E+01  4.090641500E+01 -1.785218945E+01  4.704896992E+01  8.259061849E-07  0.00000E+00  9.000E+00
#rwgt            1           1   3.6319952928398763E-002           8      150648           0
</event>
<event>
      5   9999  3.79277E-02  9.44245E+01 -1.00000E+00  1.24959E-01
      21    -1     0     0   502   512  0.000000000E+00  0.000000000E+00  7.955797431E+01  7.955797431E+01  0.000000000E+00  0.00000E+00  9.000E+00
      21    -1     0     0   501   502  0.000000000E+00  0.000000000E+00 -1.007132752E+03  1.007132752E+03  0.000000000E+00  0.00000E+00  9.000E+00
      25     1     1     2     0     0 -1.198976935E+02  7.996316300E+01 -7.345866816E+02  7.589546476E+02  1.250000000E+02  0.00000E+00  9.000E+00
      25     1     1     2     0     0  1.131418906E+02  1.421934054E+01 -1.082500309E+02  2.008639994E+02  1.250000000E+02  0.00000E+00  9.000E+00
      21     1     1     2   501   512  6.755802969E+00 -9.418250354E+01 -8.473806543E+01  1.268720796E+02  1.651812370E-06  0.00000E+00  9.000E+00
#rwgt            1           1   4.1106385282792819E-002           8      150775           0
</event>
<event>
      5   9999  3.79277E-02  3.42843E+01 -1.00000E+00  1.49119E-01
      21    -1     0     0   502   501  0.000000000E+00  0.000000000E+00  6.983877770E+02  6.983877770E+02  0.000000000E+00  0.00000E+00  9.000E+00
      21    -1     0     0   511   502  0.000000000E+00  0.000000000E+00 -1.084824152E+02  1.084824152E+02  0.000000000E+00  0.00000E+00  9.000E+00
      25     1     1     2     0     0 -1.274714564E+02 -3.141782940E+01  5.259326533E+00  1.813524544E+02  1.250000000E+02  0.00000E+00  9.000E+00
      25     1     1     2     0     0  9.323207976E+01  3.317273397E+01  5.626086721E+02  5.847616343E+02  1.250000000E+02  0.00000E+00  9.000E+00
      21     1     1     2   511   501  3.423937660E+01 -1.754904573E+00  2.203736319E+01  4.075610355E+01  9.830249847E-07  0.00000E+00  9.000E+00
#rwgt            1           1   4.0339912771388306E-002           8      150878           0
</event>
<event>
      5   9999  3.79277E-02  2.92841E+02 -1.00000E+00  1.05934E-01
      21    -1     0     0   512   501  0.000000000E+00  0.000000000E+00  1.270993456E+02  1.270993456E+02  0.000000000E+00  0.00000E+00  9.000E+00
      21    -1     0     0   501   502  0.000000000E+00  0.000000000E+00 -1.319775099E+03  1.319775099E+03  0.000000000E+00  0.00000E+00  9.000E+00
      25     1     1     2     0     0 -1.686161731E+02 -5.253582606E+01 -1.418465373E+02  2.587216014E+02  1.250000000E+02  0.00000E+00  9.000E+00
      25     1     1     2     0     0 -1.033128857E+02 -5.614122954E+01 -7.458675411E+02  7.653553285E+02  1.250000000E+02  0.00000E+00  9.000E+00
      21     1     1     2   512   502  2.719290588E+02  1.086770556E+02 -3.049616753E+02  4.227975151E+02  5.394796609E-06  0.00000E+00  9.000E+00
#rwgt            2          11   8.9076196807168727E-004           8      151137           0
</event>
<event>
      5   9999  3.79277E-02  7.24294E+01 -1.00000E+00  1.30475E-01
      21    -1     0     0   502   501  0.000000000E+00  0.000000000E+00  1.021835082E+03  1.021835082E+03  0.000000000E+00  0.00000E+00  9.000E+00
      21    -1     0     0   511   502  0.000000000E+00  0.000000000E+00 -9.474597910E+01  9.474597910E+01  0.000000000E+00  0.00000E+00  9.000E+00
      25     1     1     2     0     0  2.211421133E+02 -1.535206148E+02  4.460968607E+02  5.358169674E+02  1.250000000E+02  0.00000E+00  9.000E+00
      25     1     1     2     0     0 -1.891241265E+02  8.855236626E+01  4.228291030E+02  4.878718143E+02  1.250000000E+02  0.00000E+00  9.000E+00
      21     1     1     2   511   501 -3.201798672E+01  6.496824855E+01  5.816313886E+01  9.289227909E+01  1.168007728E-06  0.00000E+00  9.000E+00
#rwgt            1           1   4.0213178246573153E-002           8      151277           0
</event>
<event>
      5   9999  3.79277E-02  8.57997E+01 -1.00000E+00  1.26895E-01
      21    -1     0     0   502   512  0.000000000E+00  0.000000000E+00  8.665734301E+01  8.665734301E+01  0.000000000E+00  0.00000E+00  9.000E+00
      21    -1     0     0   501   502  0.000000000E+00  0.000000000E+00 -1.176990917E+03  1.176990917E+03  0.000000000E+00  0.00000E+00  9.000E+00
      25     1     1     2     0     0 -4.931922967E+01  6.336705386E+01 -1.565876043E+01  1.493919901E+02  1.250000000E+02  0.00000E+00  9.000E+00
      25     1     1     2     0     0 -1.897317258E+01 -1.153067386E+02 -9.334996910E+02  9.490533696E+02  1.250000000E+02  0.00000E+00  9.000E+00
      21     1     1     2   501   512  6.829240225E+01  5.193968473E+01 -1.411751229E+02  1.652029006E+02  3.814697266E-06  0.00000E+00  9.000E+00
#rwgt            1           1   4.2879301189778708E-002           8      151393           0
</event>
<event>
      5   9999  3.79277E-02  2.79214E+01 -1.00000E+00  1.55238E-01
      21    -1     0     0   511   501  0.000000000E+00  0.000000000E+00  3.159128679E+03  3.159128679E+03  0.000000000E+00  0.00000E+00  9.000E+00
      21    -1     0     0   501   502  0.000000000E+00  0.000000000E+00 -2.445066357E+01  2.445066357E+01  0.000000000E+00  0.00000E+00  9.000E+00
      25     1     1     2     0     0  5.123991364E+01  1.785952773E+02  9.525027139E+02  9.784723919E+02  1.250000000E+02  0.00000E+00  9.000E+00
      25     1     1     2     0     0 -2.350883452E+01 -1.818495983E+02  1.079293748E+03  1.101872015E+03  1.250000000E+02  0.00000E+00  9.000E+00
      21     1     1     2   511   502 -2.773107912E+01  3.254321070E+00  1.102881553E+03  1.103234936E+03  2.157918644E-05  0.00000E+00  9.000E+00
#rwgt            1           1  0.11633890760429612                8      151454           0
</event>
<event>
      5   9999  3.79277E-02  8.64201E+00 -1.00000E+00  2.03382E-01
      21    -1     0     0   512   501  0.000000000E+00  0.000000000E+00  3.656413990E+02  3.656413990E+02  0.000000000E+00  0.00000E+00  9.000E+00
      21    -1     0     0   501   502  0.000000000E+00  0.000000000E+00 -3.245600291E+02  3.245600291E+02  0.000000000E+00  0.00000E+00  9.000E+00
      25     1     1     2     0     0  1.779468778E+02  3.624066241E+01  2.756864640E+02  3.529964637E+02  1.250000000E+02  0.00000E+00  9.000E+00
      25     1     1     2     0     0 -1.741952683E+02 -4.402588476E+01 -2.416612421E+02  3.260481958E+02  1.250000000E+02  0.00000E+00  9.000E+00
      21     1     1     2   512   502 -3.751609509E+00  7.785222346E+00  7.056148053E+00  1.115676863E+01  1.460009660E-07  0.00000E+00  9.000E+00
#rwgt            1           1   2.9510460957524170E-002           8      151717           0
</event>
<event>
      5   9999  3.79277E-02  6.36495E+01 -1.00000E+00  1.33347E-01
      21    -1     0     0   502   501  0.000000000E+00  0.000000000E+00  2.947831246E+03  2.947831246E+03  0.000000000E+00  0.00000E+00  9.000E+00
      21    -1     0     0   501   511  0.000000000E+00  0.000000000E+00 -2.684091042E+01  2.684091042E+01  0.000000000E+00  0.00000E+00  9.000E+00
      25     1     1     2     0     0 -1.674224009E+02  3.509750730E+00  8.588723231E+02  8.839283037E+02  1.250000000E+02  0.00000E+00  9.000E+00
      25     1     1     2     0     0  1.855818954E+02 -6.451377137E+01  1.931029524E+03  1.945019972E+03  1.250000000E+02  0.00000E+00  9.000E+00
      21     1     1     2   502   511 -1.815949452E+01  6.100402064E+01  1.310884884E+02  1.457238813E+02  0.000000000E+00  0.00000E+00  9.000E+00
#rwgt            1           1   7.0687654527331084E-002           8      152085           0
</event>
<event>
      5   9999  3.79277E-02  1.01465E+02 -1.00000E+00  1.23544E-01
       2    -1     0     0   502     0  0.000000000E+00  0.000000000E+00  1.028892687E+03  1.028892687E+03  0.000000000E+00  0.00000E+00  9.000E+00
      21    -1     0     0   501   502  0.000000000E+00  0.000000000E+00 -7.825425272E+01  7.825425272E+01  0.000000000E+00  0.00000E+00  9.000E+00
      25     1     1     2     0     0 -1.058646029E+02 -3.811295832E+01  1.977439675E+02  2.595911948E+02  1.250000000E+02  0.00000E+00  9.000E+00
      25     1     1     2     0     0  1.865379003E+02 -2.342608339E+01  2.600633302E+02  3.443880157E+02  1.250000000E+02  0.00000E+00  9.000E+00
       2     1     1     2   501     0 -8.067329745E+01  6.153904172E+01  4.928311365E+02  5.031677292E+02  5.394796609E-06  0.00000E+00  9.000E+00
#rwgt            1           1   3.6582380034804567E-002           8      152197           0
</event>
<event>
      5   9999  3.79277E-02  2.01741E+01 -1.00000E+00  1.66059E-01
      21    -1     0     0   502   501  0.000000000E+00  0.000000000E+00  2.202400602E+01  2.202400602E+01  0.000000000E+00  0.00000E+00  9.000E+00
      21    -1     0     0   501   511  0.000000000E+00  0.000000000E+00 -3.045728491E+03  3.045728491E+03  0.000000000E+00  0.00000E+00  9.000E+00
      25     1     1     2     0     0 -7.251314102E+01 -1.180355980E+02 -7.281806504E+02  7.517064704E+02  1.250000000E+02  0.00000E+00  9.000E+00
      25     1     1     2     0     0  9.180741023E+01  1.239282984E+02 -9.572066737E+02  9.775768204E+02  1.250000000E+02  0.00000E+00  9.000E+00
      21     1     1     2   502   511 -1.929426921E+01 -5.892700420E+00 -1.338317161E+03  1.338469206E+03  0.000000000E+00  0.00000E+00  9.000E+00
#rwgt            1           1   3.3751272405621945E-002           8      152279           0
</event>
<event>
      5   9999  3.79277E-02  1.15497E+02 -1.00000E+00  1.21078E-01
       1    -1     0     0   502     0  0.000000000E+00  0.000000000E+00  2.300194465E+03  2.300194465E+03  0.000000000E+00  0.00000E+00  9.000E+00
      21    -1     0     0   501   502  0.000000000E+00  0.000000000E+00 -1.369599899E+02  1.369599899E+02  0.000000000E+00  0.00000E+00  9.000E+00
      25     1     1     2     0     0  5.922747990E-01 -1.831908782E+02  8.234277670E+01  2.365683443E+02  1.250000000E+02  0.00000E+00  9.000E+00
      25     1     1     2     0     0 -2.190543582E+01  6.967771714E+01  3.178010736E+01  1.482221563E+02  1.250000000E+02  0.00000E+00  9.000E+00
       1     1     1     2   501     0  2.131316102E+01  1.135131611E+02  2.049111591E+03  2.052363955E+03  0.000000000E+00  0.00000E+00  9.000E+00
#rwgt            1           1   5.2536092860392312E-002           8      152520           0
</event>
<event>
      5   9999  3.79277E-02  3.08520E+01 -1.00000E+00  1.52200E-01
      21    -1     0     0   502   511  0.000000000E+00  0.000000000E+00  1.117390359E+02  1.117390359E+02  0.000000000E+00  0.00000E+00  9.000E+00
      21    -1     0     0   501   502  0.000000000E+00  0.000000000E+00 -1.253299827E+03  1.253299827E+03  0.000000000E+00  0.00000E+00  9.000E+00
      25     1     1     2     0     0  1.571991409E+02 -1.259440760E+02 -3.289678723E+02  4.054853157E+02  1.250000000E+02  0.00000E+00  9.000E+00
      25     1     1     2     0     0 -1.593436957E+02  1.567214335E+02 -8.631446547E+02  9.003308925E+02  1.250000000E+02  0.00000E+00  9.000E+00
      21     1     1     2   501   511  2.144554714E+00 -3.077735751E+01  5.055173587E+01  5.922265486E+01  2.236564522E-06  0.00000E+00  9.000E+00
#rwgt            1           1   4.3546724699327848E-002           8      152559           0
</event>
<event>
      5   9999  3.79277E-02  4.95827E+01 -1.00000E+00  1.39284E-01
      21    -1     0     0   502   501  0.000000000E+00  0.000000000E+00  1.565053985E+02  1.565053985E+02  0.000000000E+00  0.00000E+00  9.000E+00
      21    -1     0     0   512   502  0.000000000E+00  0.000000000E+00 -3.243832562E+02  3.243832562E+02  0.000000000E+00  0.00000E+00  9.000E+00
      25     1     1     2     0     0  3.299537458E+01 -1.686068387E+02 -4.039885736E+01  2.162730415E+02  1.250000000E+02  0.00000E+00  9.000E+00
      25     1     1     2     0     0 -3.256319732E+01  1.190260486E+02 -7.098845377E+01  1.894516367E+02  1.250000000E+02  0.00000E+00  9.000E+00
      21     1     1     2   512   501 -4.321772563E-01  4.958079008E+01 -5.649054656E+01  7.516397656E+01  1.168007728E-06  0.00000E+00  9.000E+00
#rwgt            1           1   4.2743354703492407E-002           8      152689           0
</event>
<event>
      5   9999  3.79277E-02  5.16916E+01 -1.00000E+00  1.38256E-01
      21    -1     0     0   502   511  0.000000000E+00  0.000000000E+00  2.717031355E+02  2.717031355E+02  0.000000000E+00  0.00000E+00  9.000E+00
      21    -1     0     0   501   502  0.000000000E+00  0.000000000E+00 -5.195704630E+02  5.195704630E+02  0.000000000E+00  0.00000E+00  9.000E+00
      25     1     1     2     0     0  1.540921084E+02  1.271059373E+02 -1.696053784E+02  2.903296084E+02  1.250000000E+02  0.00000E+00  9.000E+00
      25     1     1     2     0     0 -1.712759233E+02 -7.835413799E+01 -2.408623336E+02  3.303248047E+02  1.250000000E+02  0.00000E+00  9.000E+00
      21     1     1     2   501   511  1.718381491E+01 -4.875179927E+01  1.626003845E+02  1.706191855E+02  2.697398305E-06  0.00000E+00  9.000E+00
#rwgt            1           1   2.3642487788072753E-002           8      152780           0
</event>
<event>
      5   9999  3.79277E-02  1.95405E+01 -1.00000E+00  1.67206E-01
      21    -1     0     0   502   501  0.000000000E+00  0.000000000E+00  2.256245815E+01  2.256245815E+01  0.000000000E+00  0.00000E+00  9.000E+00
      21    -1     0     0   501   512  0.000000000E+00  0.000000000E+00 -2.462551184E+03  2.462551184E+03  0.000000000E+00  0.00000E+00  9.000E+00
      25     1     1     2     0     0 -1.010155545E+01  1.747744403E+02 -1.005632813E+03  1.028382468E+03  1.250000000E+02  0.00000E+00  9.000E+00
      25     1     1     2     0     0  1.166639001E+01 -1.942522290E+02 -1.239225289E+03  1.260624588E+03  1.250000000E+02  0.00000E+00  9.000E+00
      21     1     1     2   502   512 -1.564834567E+00  1.947778870E+01 -1.951306232E+02  1.961065859E+02  2.697398305E-06  0.00000E+00  9.000E+00
#rwgt            1           1   7.5756380765962653E-002           8      152955           0
</event>
<event>
      5   9999  3.79277E-02  2.26007E+02 -1.00000E+00  1.09749E-01
      21    -1     0     0   502   501  0.000000000E+00  0.000000000E+00  1.969584417E+02  1.969584417E+02  0.000000000E+00  0.00000E+00  9.000E+00
      21    -1     0     0   501   511  0.000000000E+00  0.000000000E+00 -9.265149442E+02  9.265149442E+02  0.000000000E+00  0.00000E+00  9.000E+00
      25     1     1     2     0     0 -8.238054979E+01  3.304277739E+02 -3.775118536E+02  5.235544559E+02  1.250000000E+02  0.00000E+00  9.000E+00
      25     1     1     2     0     0 -7.935510947E+01 -1.725647513E+02 -6.880547392E+01  2.375605608E+02  1.250000000E+02  0.00000E+00  9.000E+00
      21     1     1     2   502   511  1.617356593E+02 -1.578630226E+02 -2.832391751E+02  3.623583691E+02  6.607249480E-06  0.00000E+00  9.000E+00
#rwgt            1           1   3.0862122944201435E-002           8      153110           0
</event>
<event>
      5   9999  3.79277E-02  2.66607E+01 -1.00000E+00  1.56687E-01
      21    -1     0     0   512   501  0.000000000E+00  0.000000000E+00  4.199140547E+02  4.199140547E+02  0.000000000E+00  0.00000E+00  9.000E+00
      21    -1     0     0   501   502  0.000000000E+00  0.000000000E+00 -1.411809866E+02  1.411809866E+02  0.000000000E+00  0.00000E+00  9.000E+00
      25     1     1     2     0     0 -1.685812342E+02  5.909801639E+01  2.459193277E+02  3.286541097E+02  1.250000000E+02  0.00000E+00  9.000E+00
      25     1     1     2     0     0  1.419206579E+02 -5.902711474E+01  1.175455609E+01  1.984662263E+02  1.250000000E+02  0.00000E+00  9.000E+00
      21     1     1     2   512   502  2.666057634E+01 -7.090164298E-02  2.105918425E+01  3.397470528E+01  0.000000000E+00  0.00000E+00  9.000E+00
#rwgt            1           1   2.8447623844998441E-002           8      153527           0
</event>
<event>
      5   9999  3.79277E-02  3.66816E+01 -1.00000E+00  1.47212E-01
      21    -1     0     0   502   501  0.000000000E+00  0.000000000E+00  4.449434378E+02  4.449434378E+02  0.000000000E+00  0.00000E+00  9.000E+00
      21    -1     0     0   501   511  0.000000000E+00  0.000000000E+00 -1.395001863E+02  1.395001863E+02  0.000000000E+00  0.00000E+00  9.000E+00
      25     1     1     2     0     0  1.882700903E+02 -1.444950799E+01  1.220153341E+02  2.572297746E+02  1.250000000E+02  0.00000E+00  9.000E+00
      25     1     1     2     0     0 -1.885364701E+02  5.113014741E+01  1.721859269E+02  2.888482058E+02  1.250000000E+02  0.00000E+00  9.000E+00
      21     1     1     2   502   511  2.663798144E-01 -3.668063942E+01  1.124199048E+01  3.836564370E+01  2.384185791E-07  0.00000E+00  9.000E+00
#rwgt            1           1   4.4707416626154683E-002           8      153702           0
</event>
<event>
      5   9999  3.79277E-02  1.26102E+01 -1.00000E+00  1.84791E-01
      21    -1     0     0   512   501  0.000000000E+00  0.000000000E+00  7.022741576E+02  7.022741576E+02  0.000000000E+00  0.00000E+00  9.000E+00
      21    -1     0     0   501   502  0.000000000E+00  0.000000000E+00 -1.465126295E+02  1.465126295E+02  0.000000000E+00  0.00000E+00  9.000E+00
      25     1     1     2     0     0 -1.002812610E+01 -2.050095909E+02  1.839652121E+02  3.026511109E+02  1.250000000E+02  0.00000E+00  9.000E+00
      25     1     1     2     0     0 -1.545016024E+00  2.100176247E+02  8.455853111E+01  2.586212191E+02  1.250000000E+02  0.00000E+00  9.000E+00
      21     1     1     2   512   502  1.157314212E+01 -5.008033811E+00  2.872377848E+02  2.875144571E+02  6.607249480E-06  0.00000E+00  9.000E+00
#rwgt            1           1   3.2305650996097335E-002           8      153800           0
</event>
<event>
      5   9999  3.79277E-02  1.45552E+02 -1.00000E+00  1.16914E-01
      21    -1     0     0   511   501  0.000000000E+00  0.000000000E+00  1.267840382E+02  1.267840382E+02  0.000000000E+00  0.00000E+00  9.000E+00
      21    -1     0     0   501   502  0.000000000E+00  0.000000000E+00 -1.136585987E+03  1.136585987E+03  0.000000000E+00  0.00000E+00  9.000E+00
      25     1     1     2     0     0  5.743255200E+01  2.608177064E+02 -8.402187342E+02  8.904588117E+02  1.250000000E+02  0.00000E+00  9.000E+00
      25     1     1     2     0     0 -4.528997696E+01 -1.157726611E+02 -1.382191793E+02  2.240179292E+02  1.250000000E+02  0.00000E+00  9.000E+00
      21     1     1     2   511   502 -1.214257505E+01 -1.450450454E+02 -3.136403494E+01  1.488932839E+02  3.071808511E-06  0.00000E+00  9.000E+00
#rwgt            1           1   3.2116971834285170E-002           8      154079           0
</event>
<event>
      5   9999  3.79277E-02  9.62347E+00 -1.00000E+00  1.97704E-01
      21    -1     0     0   502   501  0.000000000E+00  0.000000000E+00  3.006692840E+02  3.006692840E+02  0.000000000E+00  0.00000E+00  9.000E+00
      21    -1     0     0   512   502  0.000000000E+00  0.000000000E+00 -9.694201672E+02  9.694201672E+02  0.000000000E+00  0.00000E+00  9.000E+00
      25     1     1     2     0     0 -3.960332698E+01 -1.227494058E+02  9.105873405E+01  2.013765954E+02  1.250000000E+02  0.00000E+00  9.000E+00
      25     1     1     2     0     0  4.703275895E+01  1.166326415E+02  1.035258323E+02  2.053237722E+02  1.250000000E+02  0.00000E+00  9.000E+00
      21     1     1     2   512   501 -7.429431977E+00  6.116764221E+00 -8.633354495E+02  8.633890836E+02  1.078959322E-05  0.00000E+00  9.000E+00
#rwgt            1           1   4.2228055411707960E-002           8      154195           0
</event>
<event>
      5   9999  3.79277E-02  1.26615E+02 -1.00000E+00  1.19387E-01
      21    -1     0     0   511   501  0.000000000E+00  0.000000000E+00  5.338213098E+02  5.338213098E+02  0.000000000E+00  0.00000E+00  9.000E+00
      21    -1     0     0   501   502  0.000000000E+00  0.000000000E+00 -3.666920346E+02  3.666920346E+02  0.000000000E+00  0.00000E+00  9.000E+00
      25     1     1     2     0     0 -9.320890153E+01 -1.858938163E+02  1.150858878E+01  2.429029804E+02  1.250000000E+02  0.00000E+00  9.000E+00
      25     1     1     2     0     0  1.525048700E+02  7.402141694E+01 -1.936389986E+02  2.861083140E+02  1.250000000E+02  0.00000E+00  9.000E+00
      21     1     1     2   511   502 -5.929596850E+01  1.118723994E+02  3.492596850E+02  3.715020501E+02  5.394796609E-06  0.00000E+00  9.000E+00
#rwgt            1           1   4.7756468429798936E-002           8      154504           0
</event>
<event>
      5   9999  3.79277E-02  2.26692E+01 -1.00000E+00  1.62002E-01
      21    -1     0     0   502   512  0.000000000E+00  0.000000000E+00  6.335026295E+02  6.335026295E+02  0.000000000E+00  0.00000E+00  9.000E+00
      21    -1     0     0   501   502  0.000000000E+00  0.000000000E+00 -1.773078060E+02  1.773078060E+02  0.000000000E+00  0.00000E+00  9.000E+00
      25     1     1     2     0     0 -1.852856744E+02  9.773772303E+01  1.192555337E+02  2.715332870E+02  1.250000000E+02  0.00000E+00  9.000E+00
      25     1     1     2     0     0  1.634516147E+02 -1.038343281E+02  3.107006233E+01  2.325690152E+02  1.250000000E+02  0.00000E+00  9.000E+00
      21     1     1     2   501   512  2.183405965E+01  6.096605051E+00  3.058692274E+02  3.067081333E+02  3.814697266E-06  0.00000E+00  9.000E+00
#rwgt            1           1   2.5396171775190907E-002           8      154706           0
</event>
<event>
      5   9999  3.79277E-02  9.86519E+01 -1.00000E+00  1.24094E-01
       2    -1     0     0   502     0  0.000000000E+00  0.000000000E+00  2.622491035E+03  2.622491035E+03  0.000000000E+00  0.00000E+00  9.000E+00
      21    -1     0     0   501   502  0.000000000E+00  0.000000000E+00 -1.929961146E+02  1.929961146E+02  0.000000000E+00  0.00000E+00  9.000E+00
      25     1     1     2     0     0 -2.247031417E+02 -2.647954501E+01  2.692638824E+02  3.732568908E+02  1.250000000E+02  0.00000E+00  9.000E+00
      25     1     1     2     0     0  1.865096206E+02 -6.447897757E+01 -4.237925310E+01  2.374118325E+02  1.250000000E+02  0.00000E+00  9.000E+00
       2     1     1     2   501     0  3.819352111E+01  9.095852258E+01  2.202610291E+03  2.204818426E+03  0.000000000E+00  0.00000E+00  9.000E+00
#rwgt            1           1  0.18499889506850678                8      154810           0
</event>
<event>
      5   9999  3.79277E-02  1.51311E+01 -1.00000E+00  1.77028E-01
       2    -1     0     0   502     0  0.000000000E+00  0.000000000E+00  2.626262067E+02  2.626262067E+02  0.000000000E+00  0.00000E+00  9.000E+00
      21    -1     0     0   501   502  0.000000000E+00  0.000000000E+00 -4.064463458E+02  4.064463458E+02  0.000000000E+00  0.00000E+00  9.000E+00
      25     1     1     2     0     0  1.355891791E+02  4.145281862E+01  7.770026304E+01  2.043650962E+02  1.250000000E+02  0.00000E+00  9.000E+00
      25     1     1     2     0     0 -1.242439901E+02 -3.144105272E+01 -3.191389564E+02  3.659231919E+02  1.250000000E+02  0.00000E+00  9.000E+00
       2     1     1     2   501     0 -1.134518897E+01 -1.001176591E+01  9.761855428E+01  9.878426448E+01  1.348699152E-06  0.00000E+00  9.000E+00
#rwgt            1           1   5.1692224978342548E-002           8      155031           0
</event>
<event>
      5   9999  3.79277E-02  1.23963E+02 -1.00000E+00  1.19772E-01
      21    -1     0     0   502   511  0.000000000E+00  0.000000000E+00  2.374582505E+02  2.374582505E+02  0.000000000E+00  0.00000E+00  9.000E+00
      21    -1     0     0   501   502  0.000000000E+00  0.000000000E+00 -3.678048231E+02  3.678048231E+02  0.000000000E+00  0.00000E+00  9.000E+00
      25     1     1     2     0     0 -1.806490022E+02 -2.594565908E+01 -5.803433266E+01  2.286924201E+02  1.250000000E+02  0.00000E+00  9.000E+00
      25     1     1     2     0     0  1.639330956E+02 -9.688538032E+01 -1.012513860E+02  2.492743066E+02  1.250000000E+02  0.00000E+00  9.000E+00
      21     1     1     2   501   511  1.671590663E+01  1.228310394E+02  2.893914599E+01  1.272963469E+02  3.371747881E-06  0.00000E+00  9.000E+00
#rwgt            1           1   5.7254815409865545E-002           8      155188           0
</event>
<event>
      5   9999  3.79277E-02  1.41055E+02 -1.00000E+00  1.17462E-01
      21    -1     0     0   502   512  0.000000000E+00  0.000000000E+00  1.660847206E+02  1.660847206E+02  0.000000000E+00  0.00000E+00  9.000E+00
      21    -1     0     0   501   502  0.000000000E+00  0.000000000E+00 -5.365513121E+02  5.365513121E+02  0.000000000E+00  0.00000E+00  9.000E+00
      25     1     1     2     0     0 -1.037141598E+02  8.518015053E+01 -8.916447127E+01  2.039303507E+02  1.250000000E+02  0.00000E+00  9.000E+00
      25     1     1     2     0     0 -2.645459678E+01 -3.084296975E+01 -3.253796368E+02  3.509245538E+02  1.250000000E+02  0.00000E+00  9.000E+00
      21     1     1     2   501   512  1.301687565E+02 -5.433718078E+01  4.407751654E+01  1.477811282E+02  1.719260824E-06  0.00000E+00  9.000E+00
#rwgt            1           1   3.6367911434481426E-002           8      155289           0
</event>
<event>
      5   9999  3.79277E-02  5.92585E+01 -1.00000E+00  1.34993E-01
      21    -1     0     0   502   501  0.000000000E+00  0.000000000E+00  1.420699631E+02  1.420699631E+02  0.000000000E+00  0.00000E+00  9.000E+00
      21    -1     0     0   501   511  0.000000000E+00  0.000000000E+00 -5.038573850E+02  5.038573850E+02  0.000000000E+00  0.00000E+00  9.000E+00
      25     1     1     2     0     0 -7.228952247E+01 -1.283917704E+01  2.467539971E+01  1.470526942E+02  1.250000000E+02  0.00000E+00  9.000E+00
      25     1     1     2     0     0  1.283780152E+02  3.196130284E+01 -1.026890366E+02  2.089796112E+02  1.250000000E+02  0.00000E+00  9.000E+00
      21     1     1     2   502   511 -5.608849273E+01 -1.912212580E+01 -2.837737850E+02  2.898950427E+02  3.814697266E-06  0.00000E+00  9.000E+00
#rwgt            1           1   4.7439472247280658E-002           8      155364           0
</event>
<event>
      5   9999 -3.79277E-02  3.44152E+01 -1.00000E+00  1.49010E-01
      21    -1     0     0   502   501  0.000000000E+00  0.000000000E+00  5.872185232E+02  5.872185232E+02  0.000000000E+00  0.00000E+00  9.000E+00
      21    -1     0     0   501   512  0.000000000E+00  0.000000000E+00 -7.190149286E+01  7.190149286E+01  0.000000000E+00  0.00000E+00  9.000E+00
      25     1     1     2     0     0 -1.434938758E+02 -3.897473655E+01  2.907670500E+02  3.496855728E+02  1.250000000E+02  0.00000E+00  9.000E+00
      25     1     1     2     0     0  1.240522957E+02  1.057695856E+01  2.024399544E+02  2.685289170E+02  1.250000000E+02  0.00000E+00  9.000E+00
      21     1     1     2   502   512  1.944158014E+01  2.839777799E+01  2.211002602E+01  4.090552632E+01  4.768371582E-07  0.00000E+00  9.000E+00
#rwgt            1           1 -0.15324264807680801                8      155523           0
</event>
<event>
      5   9999  3.79277E-02  1.32172E+02 -1.00000E+00  1.18614E-01
       1    -1     0     0   502     0  0.000000000E+00  0.000000000E+00  2.092231147E+03  2.092231147E+03  0.000000000E+00  0.00000E+00  9.000E+00
      21    -1     0     0   501   502  0.000000000E+00  0.000000000E+00 -3.394177514E+01  3.394177514E+01  0.000000000E+00  0.00000E+00  9.000E+00
      25     1     1     2     0     0 -3.701568906E+01 -1.093953185E+02  3.190498460E+02  3.616010249E+02  1.250000000E+02  0.00000E+00  9.000E+00
      25     1     1     2     0     0 -8.808276272E+00 -1.457938805E+01  1.293817329E+03  1.299953239E+03  1.250000000E+02  0.00000E+00  9.000E+00
       1     1     1     2   501     0  4.582396533E+01  1.239747065E+02  4.454221974E+02  4.646186583E+02  0.000000000E+00  0.00000E+00  9.000E+00
#rwgt            1           1   1.4744186129266826E-002           8      155739           0
</event>
<event>
      5   9999  3.79277E-02  1.40649E+01 -1.00000E+00  1.80058E-01
      21    -1     0     0   502   501  0.000000000E+00  0.000000000E+00  3.306163832E+02  3.306163832E+02  0.000000000E+00  0.00000E+00  9.000E+00
      21    -1     0     0   511   502  0.000000000E+00  0.000000000E+00 -1.288555504E+02  1.288555504E+02  0.000000000E+00  0.00000E+00  9.000E+00
      25     1     1     2     0     0 -8.130234303E+01 -1.085985591E+02  1.023610901E+02  2.109656626E+02  1.250000000E+02  0.00000E+00  9.000E+00
      25     1     1     2     0     0  9.224446876E+01  1.174355590E+02  1.160584965E+02  2.267040519E+02  1.250000000E+02  0.00000E+00  9.000E+00
      21     1     1     2   511   501 -1.094212574E+01 -8.836999930E+00 -1.665875378E+01  2.180221918E+01  2.384185791E-07  0.00000E+00  9.000E+00
#rwgt            1           1   2.3766342386574095E-002           8      155945           0
</event>
<event>
      5   9999  3.79277E-02  6.33615E+01 -1.00000E+00  1.33450E-01
      21    -1     0     0   502   501  0.000000000E+00  0.000000000E+00  1.097133939E+02  1.097133939E+02  0.000000000E+00  0.00000E+00  9.000E+00
      21    -1     0     0   512   502  0.000000000E+00  0.000000000E+00 -1.023155469E+03  1.023155469E+03  0.000000000E+00  0.00000E+00  9.000E+00
      25     1     1     2     0     0 -1.816515703E+02  1.967621506E+02 -3.945101623E+02  4.929258616E+02  1.250000000E+02  0.00000E+00  9.000E+00
      25     1     1     2     0     0  1.425628368E+02 -2.466294750E+02 -4.278959472E+02  5.290276005E+02  1.250000000E+02  0.00000E+00  9.000E+00
      21     1     1     2   512   501  3.908873345E+01  4.986732441E+01 -9.103596599E+01  1.109154012E+02  1.348699152E-06  0.00000E+00  9.000E+00
#rwgt            1           1   4.1235763197313369E-002           8      156160           0
</event>
<event>
      5   9999 -3.79277E-02  3.72407E+01 -1.00000E+00  1.46792E-01
      21    -1     0     0   502   511  0.000000000E+00  0.000000000E+00  5.856464792E+02  5.856464792E+02  0.000000000E+00  0.00000E+00  9.000E+00
      21    -1     0     0   501   502  0.000000000E+00  0.000000000E+00 -1.868842099E+02  1.868842099E+02  0.000000000E+00  0.00000E+00  9.000E+00
      25     1     1     2     0     0  1.654654627E+02 -9.102013755E+01  4.708273057E+01  2.313120583E+02  1.250000000E+02  0.00000E+00  9.000E+00
      25     1     1     2     0     0 -1.711332330E+02  1.278270320E+02  7.015446288E+01  2.572410974E+02  1.250000000E+02  0.00000E+00  9.000E+00
      21     1     1     2   501   511  5.667770272E+00 -3.680689447E+01  2.815250758E+02  2.839775333E+02  0.000000000E+00  0.00000E+00  9.000E+00
#rwgt            1           1 -0.19263755582524281                8      156391           0
</event>
<event>
      5   9999  3.79277E-02  2.98013E+01 -1.00000E+00  1.53241E-01
      21    -1     0     0   502   512  0.000000000E+00  0.000000000E+00  2.856634934E+02  2.856634934E+02  0.000000000E+00  0.00000E+00  9.000E+00
      21    -1     0     0   501   502  0.000000000E+00  0.000000000E+00 -5.162917498E+02  5.162917498E+02  0.000000000E+00  0.00000E+00  9.000E+00
      25     1     1     2     0     0  1.379503672E+02  5.114567894E+01 -4.380109976E+02  4.786698427E+02  1.250000000E+02  0.00000E+00  9.000E+00
      25     1     1     2     0     0 -1.677450123E+02 -5.051648166E+01  1.969029261E+02  2.916951600E+02  1.250000000E+02  0.00000E+00  9.000E+00
      21     1     1     2   501   512  2.979464511E+01 -6.291972870E-01  1.047981520E+01  3.159024048E+01  6.194296387E-07  0.00000E+00  9.000E+00
#rwgt            1           1   2.2211944791430679E-002           8      156567           0
</event>
<event>
      5   9999  3.79277E-02  6.43309E+01 -1.00000E+00  1.33106E-01
      21    -1     0     0   502   501  0.000000000E+00  0.000000000E+00  1.019513029E+02  1.019513029E+02  0.000000000E+00  0.00000E+00  9.000E+00
       1    -1     0     0   501     0  0.000000000E+00  0.000000000E+00 -1.603176386E+03  1.603176386E+03  0.000000000E+00  0.00000E+00  9.000E+00
      25     1     1     2     0     0 -4.849186008E+01 -2.807065345E+02 -2.879623669E+02  4.239044040E+02  1.250000000E+02  0.00000E+00  9.000E+00
      25     1     1     2     0     0  1.092300628E+02  3.019040187E+02 -9.612273040E+02  1.021107327E+03  1.250000000E+02  0.00000E+00  9.000E+00
       1     1     1     2   502     0 -6.073820272E+01 -2.119748422E+01 -2.520354117E+02  2.601159575E+02  2.697398305E-06  0.00000E+00  9.000E+00
#rwgt            1           1   3.8715194268016527E-002           8      156742           0
</event>
<event>
      5   9999  3.79277E-02  1.93026E+01 -1.00000E+00  1.67651E-01
      21    -1     0     0   511   501  0.000000000E+00  0.000000000E+00  2.374815790E+02  2.374815790E+02  0.000000000E+00  0.00000E+00  9.000E+00
      21    -1     0     0   501   502  0.000000000E+00  0.000000000E+00 -5.054726552E+02  5.054726552E+02  0.000000000E+00  0.00000E+00  9.000E+00
      25     1     1     2     0     0  2.622017125E+01 -1.216446917E+02 -1.124999744E+02  2.092036631E+02  1.250000000E+02  0.00000E+00  9.000E+00
      25     1     1     2     0     0 -8.530161477E+00  1.139211758E+02 -3.232314668E+02  3.649032462E+02  1.250000000E+02  0.00000E+00  9.000E+00
      21     1     1     2   511   502 -1.769000978E+01  7.723515891E+00  1.677403649E+02  1.688473250E+02  1.907348633E-06  0.00000E+00  9.000E+00
#rwgt            1           1   3.7284929859154409E-002           8      156898           0
</event>
<event>
      5   9999  3.79277E-02  1.82432E+01 -1.00000E+00  1.69732E-01
      21    -1     0     0   502   501  0.000000000E+00  0.000000000E+00  7.745130327E+02  7.745130327E+02  0.000000000E+00  0.00000E+00  9.000E+00
      -3    -1     0     0     0   502  0.000000000E+00  0.000000000E+00 -5.418184422E+02  5.418184422E+02  0.000000000E+00  0.00000E+00  9.000E+00
      25     1     1     2     0     0  6.959733331E+01  4.148394759E+01  6.845631406E+02  7.005829003E+02  1.250000000E+02  0.00000E+00  9.000E+00
      25     1     1     2     0     0 -6.962996640E+01 -2.324073740E+01  1.751153002E+01  1.460141013E+02  1.250000000E+02  0.00000E+00  9.000E+00
      -3     1     1     2     0   501  3.263309015E-02 -1.824321019E+01 -4.693800801E+02  4.697344733E+02  7.629394531E-06  0.00000E+00  9.000E+00
#rwgt            1           1   3.4466509791709510E-002           8      157134           0
</event>
<event>
      5   9999  3.79277E-02  2.02210E+01 -1.00000E+00  1.65976E-01
      21    -1     0     0   511   501  0.000000000E+00  0.000000000E+00  2.916891006E+02  2.916891006E+02  0.000000000E+00  0.00000E+00  9.000E+00
      21    -1     0     0   501   502  0.000000000E+00  0.000000000E+00 -5.755909741E+02  5.755909741E+02  0.000000000E+00  0.00000E+00  9.000E+00
      25     1     1     2     0     0 -1.723462358E+02  1.491935148E+02 -4.528581936E+01  2.638896271E+02  1.250000000E+02  0.00000E+00  9.000E+00
      25     1     1     2     0     0  1.853225365E+02 -1.336853528E+02 -3.799291119E+02  4.606379773E+02  1.250000000E+02  0.00000E+00  9.000E+00
      21     1     1     2   511   502 -1.297630076E+01 -1.550816206E+01  1.413130577E+02  1.427524702E+02  1.907348633E-06  0.00000E+00  9.000E+00
#rwgt            1           1   3.6982295306639441E-002           8      157402           0
</event>
<event>
      5   9999  3.79277E-02  5.14809E+01 -1.00000E+00  1.38356E-01
       2    -1     0     0   502     0  0.000000000E+00  0.000000000E+00  2.326085737E+03  2.326085737E+03  0.000000000E+00  0.00000E+00  9.000E+00
      21    -1     0     0   501   502  0.000000000E+00  0.000000000E+00 -2.889385862E+01  2.889385862E+01  0.000000000E+00  0.00000E+00  9.000E+00
      25     1     1     2     0     0 -1.424717382E+02  5.400211996E+01  5.548480499E+02  5.888087836E+02  1.250000000E+02  0.00000E+00  9.000E+00
      25     1     1     2     0     0  1.485562488E+02 -2.882070098E+00  8.313789436E+02  8.537524309E+02  1.250000000E+02  0.00000E+00  9.000E+00
       2     1     1     2   501     0 -6.084510641E+00 -5.112004986E+01  9.109648847E+02  9.124183809E+02  1.078959322E-05  0.00000E+00  9.000E+00
#rwgt            1           1   7.0367875163621599E-002           8      157705           0
</event>
<event>
      5   9999  3.79277E-02  7.53347E+01 -1.00000E+00  1.29625E-01
      21    -1     0     0   502   501  0.000000000E+00  0.000000000E+00  7.816742692E+02  7.816742692E+02  0.000000000E+00  0.00000E+00  9.000E+00
      21    -1     0     0   511   502  0.000000000E+00  0.000000000E+00 -1.493243788E+02  1.493243788E+02  0.000000000E+00  0.00000E+00  9.000E+00
      25     1     1     2     0     0  2.342504120E+02 -3.872623230E-01  5.760589836E+02  6.343046257E+02  1.250000000E+02  0.00000E+00  9.000E+00
      25     1     1     2     0     0 -1.665846019E+02 -3.272842528E+01  6.558212020E+01  2.207885729E+02  1.250000000E+02  0.00000E+00  9.000E+00
      21     1     1     2   511   501 -6.766581003E+01  3.311568760E+01 -9.291213505E+00  7.590544948E+01  1.111910230E-06  0.00000E+00  9.000E+00
#rwgt            1           1   3.1814864159307427E-002           8      157811           0
</event>
<event>
      5   9999  3.79277E-02  7.07126E+00 -1.00000E+00  2.14934E-01
      21    -1     0     0   502   501  0.000000000E+00  0.000000000E+00  2.132265954E+01  2.132265954E+01  0.000000000E+00  0.00000E+00  9.000E+00
       2    -1     0     0   501     0  0.000000000E+00  0.000000000E+00 -3.429664257E+03  3.429664257E+03  0.000000000E+00  0.00000E+00  9.000E+00
      25     1     1     2     0     0  9.192291640E+01  5.698196557E+00 -8.097124050E+02  8.244643539E+02  1.250000000E+02  0.00000E+00  9.000E+00
      25     1     1     2     0     0 -9.731605284E+01 -1.124708748E+00 -4.361138087E+02  4.639956177E+02  1.250000000E+02  0.00000E+00  9.000E+00
       2     1     1     2   502     0  5.393136440E+00 -4.573487810E+00 -2.162515384E+03  2.162526945E+03  3.051757812E-05  0.00000E+00  9.000E+00
#rwgt            1           1   8.6061333602418022E-002           8      157898           0
</event>
<event>
      5   9999  3.79277E-02  7.70689E+00 -1.00000E+00  2.09813E-01
      21    -1     0     0   502   511  0.000000000E+00  0.000000000E+00  1.746682618E+01  1.746682618E+01  0.000000000E+00  0.00000E+00  9.000E+00
      21    -1     0     0   501   502  0.000000000E+00  0.000000000E+00 -4.134509600E+03  4.134509600E+03  0.000000000E+00  0.00000E+00  9.000E+00
      25     1     1     2     0     0 -1.358225633E+01  1.934669414E+02 -1.217614848E+03  1.239284008E+03  1.250000000E+02  0.00000E+00  9.000E+00
      25     1     1     2     0     0  2.115446997E+01 -1.920324797E+02 -2.894306162E+03  2.903438848E+03  1.250000000E+02  0.00000E+00  9.000E+00
      21     1     1     2   501   511 -7.572213644E+00 -1.434461692E+00 -5.121764923E+00  9.253570972E+00  3.209808354E-07  0.00000E+00  9.000E+00
#rwgt            1           1   4.8802103389261695E-003           8      158159           0
</event>
<event>
      5   9999  3.79277E-02  1.09395E+01 -1.00000E+00  1.91354E-01
      21    -1     0     0   502   501  0.000000000E+00  0.000000000E+00  2.632736435E+03  2.632736435E+03  0.000000000E+00  0.00000E+00  9.000E+00
      21    -1     0     0   512   502  0.000000000E+00  0.000000000E+00 -5.965460224E+01  5.965460224E+01  0.000000000E+00  0.00000E+00  9.000E+00
      25     1     1     2     0     0  9.503375145E+01  2.386865557E+02  4.852239581E+02  5.630896690E+02  1.250000000E+02  0.00000E+00  9.000E+00
      25     1     1     2     0     0 -8.650513296E+01 -2.318355553E+02  2.096876634E+03  2.115123514E+03  1.250000000E+02  0.00000E+00  9.000E+00
      21     1     1     2   512   501 -8.528618485E+00 -6.851000358E+00 -9.018758974E+00  1.417785430E+01  7.444617746E-07  0.00000E+00  9.000E+00
#rwgt            1           1   6.5184336539510057E-002           8      158639           0
</event>
<event>
      5   9999  3.79277E-02  4.55427E+01 -1.00000E+00  1.41429E-01
      21    -1     0     0   502   501  0.000000000E+00  0.000000000E+00  3.060728107E+02  3.060728107E+02  0.000000000E+00  0.00000E+00  9.000E+00
       2    -1     0     0   501     0  0.000000000E+00  0.000000000E+00 -1.903854774E+03  1.903854774E+03  0.000000000E+00  0.00000E+00  9.000E+00
      25     1     1     2     0     0 -9.731489808E+01 -4.510702928E+02 -2.951787247E+01  4.789894605E+02  1.250000000E+02  0.00000E+00  9.000E+00
      25     1     1     2     0     0  5.259797246E+01  4.424367344E+02 -5.816596669E+02  7.432831081E+02  1.250000000E+02  0.00000E+00  9.000E+00
       2     1     1     2   502     0  4.471692562E+01  8.633558484E+00 -9.866044242E+02  9.876550165E+02  0.000000000E+00  0.00000E+00  9.000E+00
#rwgt            1           1   6.0068419964158258E-002           8      158924           0
</event>
<event>
      5   9999  3.79277E-02  1.40718E+01 -1.00000E+00  1.80038E-01
      21    -1     0     0   502   501  0.000000000E+00  0.000000000E+00  1.073037740E+02  1.073037740E+02  0.000000000E+00  0.00000E+00  9.000E+00
      21    -1     0     0   511   502  0.000000000E+00  0.000000000E+00 -7.793775532E+02  7.793775532E+02  0.000000000E+00  0.00000E+00  9.000E+00
      25     1     1     2     0     0  6.476558357E+01 -1.555965106E+02 -1.224560688E+02  2.429513196E+02  1.250000000E+02  0.00000E+00  9.000E+00
      25     1     1     2     0     0 -7.057479896E+01  1.427797662E+02 -1.714637170E+02  2.653142856E+02  1.250000000E+02  0.00000E+00  9.000E+00
      21     1     1     2   511   501  5.809215393E+00  1.281674440E+01 -3.781539934E+02  3.784157220E+02  0.000000000E+00  0.00000E+00  9.000E+00
#rwgt            1           1   3.1236478695354692E-002           8      159300           0
</event>
<event>
      5   9999  3.79277E-02  1.96378E+01 -1.00000E+00  1.67027E-01
       1    -1     0     0   502     0  0.000000000E+00  0.000000000E+00  1.761096879E+02  1.761096879E+02  0.000000000E+00  0.00000E+00  9.000E+00
      21    -1     0     0   501   502  0.000000000E+00  0.000000000E+00 -7.764779210E+02  7.764779210E+02  0.000000000E+00  0.00000E+00  9.000E+00
      25     1     1     2     0     0 -1.430327214E+02 -3.868692339E+01 -5.028696168E+02  5.389414522E+02  1.250000000E+02  0.00000E+00  9.000E+00
      25     1     1     2     0     0  1.306980429E+02  5.396753356E+01 -2.198394278E+02  2.897392744E+02  1.250000000E+02  0.00000E+00  9.000E+00
       1     1     1     2   501     0  1.233467853E+01 -1.528061017E+01  1.223408114E+02  1.239068823E+02  1.907348633E-06  0.00000E+00  9.000E+00
#rwgt            1           1   2.9837971000852347E-002           8      159517           0
</event>
<event>
      5   9999 -3.79277E-02  1.66570E+02 -1.00000E+00  1.14618E-01
      21    -1     0     0   502   501  0.000000000E+00  0.000000000E+00  9.667097812E+02  9.667097812E+02  0.000000000E+00  0.00000E+00  9.000E+00
      21    -1     0     0   501   511  0.000000000E+00  0.000000000E+00 -1.139234718E+02  1.139234718E+02  0.000000000E+00  0.00000E+00  9.000E+00
      25     1     1     2     0     0  6.211260358E+01  1.852838908E+02  5.966019587E+02  6.401148279E+02  1.250000000E+02  0.00000E+00  9.000E+00
      25     1     1     2     0     0 -1.320578914E+02 -3.411161131E+01  1.771696933E+02  2.561581326E+02  1.250000000E+02  0.00000E+00  9.000E+00
      21     1     1     2   502   511  6.994528780E+01 -1.511722795E+02  7.901465732E+01  1.843602925E+02  3.438521648E-06  0.00000E+00  9.000E+00
#rwgt            1           1  -9.7718035990239996E-002           8      159697           0
</event>
<event>
      5   9999  3.79277E-02  8.07040E+01 -1.00000E+00  1.28166E-01
      21    -1     0     0   502   501  0.000000000E+00  0.000000000E+00  1.993522790E+02  1.993522790E+02  0.000000000E+00  0.00000E+00  9.000E+00
      21    -1     0     0   501   512  0.000000000E+00  0.000000000E+00 -5.383295276E+02  5.383295276E+02  0.000000000E+00  0.00000E+00  9.000E+00
      25     1     1     2     0     0  2.075055586E+02  6.275272811E+01  1.706648941E+00  2.502486251E+02  1.250000000E+02  0.00000E+00  9.000E+00
      25     1     1     2     0     0 -1.849290621E+02 -1.402346111E+02 -2.910745814E+02  3.927007972E+02  1.250000000E+02  0.00000E+00  9.000E+00
      21     1     1     2   502   512 -2.257649646E+01  7.748188297E+01 -4.960931610E+01  9.473238424E+01  3.162979880E-06  0.00000E+00  9.000E+00
#rwgt            1           1   2.5591143168806754E-002           8      160113           0
</event>
<event>
      5   9999  3.79277E-02  5.51583E+01 -1.00000E+00  1.36685E-01
      21    -1     0     0   511   501  0.000000000E+00  0.000000000E+00  6.476350964E+01  6.476350964E+01  0.000000000E+00  0.00000E+00  9.000E+00
      21    -1     0     0   501   502  0.000000000E+00  0.000000000E+00 -9.205681783E+02  9.205681783E+02  0.000000000E+00  0.00000E+00  9.000E+00
      25     1     1     2     0     0  3.760060591E-01  1.276300098E+02 -2.536322294E+02  3.102319593E+02  1.250000000E+02  0.00000E+00  9.000E+00
      25     1     1     2     0     0 -3.115894813E+01 -8.186043604E+01 -6.008414057E+02  6.199253228E+02  1.250000000E+02  0.00000E+00  9.000E+00
      21     1     1     2   511   502  3.078294207E+01 -4.576957378E+01 -1.331033551E+00  5.517440582E+01  8.946903379E-07  0.00000E+00  9.000E+00
#rwgt            1           1   4.1119402528752257E-002           8      160309           0
</event>
<event>
      5   9999  3.79277E-02  2.33292E+01 -1.00000E+00  1.61034E-01
      21    -1     0     0   502   501  0.000000000E+00  0.000000000E+00  2.083992937E+02  2.083992937E+02  0.000000000E+00  0.00000E+00  9.000E+00
      21    -1     0     0   512   502  0.000000000E+00  0.000000000E+00 -2.621183121E+02  2.621183121E+02  0.000000000E+00  0.00000E+00  9.000E+00
      25     1     1     2     0     0 -3.704585638E+01  2.655523432E+01 -1.067285177E+02  1.705683219E+02  1.250000000E+02  0.00000E+00  9.000E+00
      25     1     1     2     0     0  2.313633783E+01 -4.528424734E+01  1.490801444E+02  2.010866546E+02  1.250000000E+02  0.00000E+00  9.000E+00
      21     1     1     2   512   501  1.390951855E+01  1.872901302E+01 -9.607064513E+01  9.886262939E+01  1.348699152E-06  0.00000E+00  9.000E+00
#rwgt            1           1   4.4408389350318156E-002           8      160397           0
</event>
<event>
      5   9999  3.79277E-02  2.22498E+01 -1.00000E+00  1.62638E-01
      21    -1     0     0   502   511  0.000000000E+00  0.000000000E+00  2.632263068E+02  2.632263068E+02  0.000000000E+00  0.00000E+00  9.000E+00
      21    -1     0     0   501   502  0.000000000E+00  0.000000000E+00 -3.438434528E+02  3.438434528E+02  0.000000000E+00  0.00000E+00  9.000E+00
      25     1     1     2     0     0  2.295285147E+02 -3.762101182E+01  1.394617166E-01  2.640524551E+02  1.250000000E+02  0.00000E+00  9.000E+00
      25     1     1     2     0     0 -2.135472683E+02  5.310169134E+01 -1.332437509E+02  2.860089554E+02  1.250000000E+02  0.00000E+00  9.000E+00
      21     1     1     2   501   511 -1.598124639E+01 -1.548067951E+01  5.248714321E+01  5.700834918E+01  6.743495762E-07  0.00000E+00  9.000E+00
#rwgt            1           1   4.3877482281634468E-002           8      160583           0
</event>
<event>
      5   9999  3.79277E-02  5.38867E+01 -1.00000E+00  1.37246E-01
      21    -1     0     0   502   501  0.000000000E+00  0.000000000E+00  1.211210093E+03  1.211210093E+03  0.000000000E+00  0.00000E+00  9.000E+00
      21    -1     0     0   501   512  0.000000000E+00  0.000000000E+00 -9.918266241E+01  9.918266241E+01  0.000000000E+00  0.00000E+00  9.000E+00
      25     1     1     2     0     0  3.142963657E+02 -7.300871262E+00  4.605963953E+02  5.714976357E+02  1.250000000E+02  0.00000E+00  9.000E+00
      25     1     1     2     0     0 -2.622375464E+02 -6.615033460E+00  5.863293838E+02  6.543847765E+02  1.250000000E+02  0.00000E+00  9.000E+00
      21     1     1     2   502   512 -5.205881938E+01  1.391590472E+01  6.510165122E+01  8.451034298E+01  9.536743164E-07  0.00000E+00  9.000E+00
#rwgt            1           1   2.2700866022772232E-002           8      160744           0
</event>
<event>
      5   9999  3.79277E-02  1.66864E+01 -1.00000E+00  1.73133E-01
      21    -1     0     0   502   501  0.000000000E+00  0.000000000E+00  1.011636922E+01  1.011636922E+01  0.000000000E+00  0.00000E+00  9.000E+00
      21    -1     0     0   501   511  0.000000000E+00  0.000000000E+00 -2.224069676E+03  2.224069676E+03  0.000000000E+00  0.00000E+00  9.000E+00
      25     1     1     2     0     0  4.274735888E+01  5.491945428E+01 -1.088903403E+03  1.098261856E+03  1.250000000E+02  0.00000E+00  9.000E+00
      25     1     1     2     0     0 -4.381222466E+01 -3.826702658E+01 -9.303426646E+02  9.405032429E+02  1.250000000E+02  0.00000E+00  9.000E+00
      21     1     1     2   502   511  1.064865784E+00 -1.665242769E+01 -1.947072397E+02  1.954209469E+02  0.000000000E+00  0.00000E+00  9.000E+00
#rwgt            1           1  0.11091367532306257                8      160850           0
</event>
<event>
      5   9999 -3.79277E-02  4.90477E+01 -1.00000E+00  1.39554E-01
      21    -1     0     0   502   501  0.000000000E+00  0.000000000E+00  1.990698391E+02  1.990698391E+02  0.000000000E+00  0.00000E+00  9.000E+00
       1    -1     0     0   501     0  0.000000000E+00  0.000000000E+00 -1.303045213E+03  1.303045213E+03  0.000000000E+00  0.00000E+00  9.000E+00
      25     1     1     2     0     0  1.448210280E+02 -3.948121253E+00 -4.971747761E+01  1.977006459E+02  1.250000000E+02  0.00000E+00  9.000E+00
      25     1     1     2     0     0 -1.548831787E+02  5.195258286E+01  3.958269316E+01  2.094747228E+02  1.250000000E+02  0.00000E+00  9.000E+00
       1     1     1     2   502     0  1.006215072E+01 -4.800446161E+01 -1.093840589E+03  1.094939683E+03  2.157918644E-05  0.00000E+00  9.000E+00
#rwgt            1           1  -4.2171751307899255E-002           8      160961           0
</event>
<event>
      5   9999  3.79277E-02  2.04619E+01 -1.00000E+00  1.65555E-01
      21    -1     0     0   502   501  0.000000000E+00  0.000000000E+00  6.277849250E+02  6.277849250E+02  0.000000000E+00  0.00000E+00  9.000E+00
      21    -1     0     0   501   511  0.000000000E+00  0.000000000E+00 -2.914316169E+02  2.914316169E+02  0.000000000E+00  0.00000E+00  9.000E+00
      25     1     1     2     0     0  3.400033271E+01 -1.710871978E+02  2.541677284E+02  3.326455862E+02  1.250000000E+02  0.00000E+00  9.000E+00
      25     1     1     2     0     0 -5.340037582E+01  1.775932316E+02  2.964415042E+02  3.713401695E+02  1.250000000E+02  0.00000E+00  9.000E+00
      21     1     1     2   502   511  1.940004312E+01 -6.506033814E+00 -2.142559245E+02  2.152307862E+02  2.697398305E-06  0.00000E+00  9.000E+00
#rwgt            1           1   3.1318262985840457E-002           8      161057           0
</event>
<event>
      5   9999  3.79277E-02  6.00150E+01 -1.00000E+00  1.34698E-01
      21    -1     0     0   502   501  0.000000000E+00  0.000000000E+00  3.424092692E+02  3.424092692E+02  0.000000000E+00  0.00000E+00  9.000E+00
      21    -1     0     0   501   512  0.000000000E+00  0.000000000E+00 -3.599936028E+02  3.599936028E+02  0.000000000E+00  0.00000E+00  9.000E+00
      25     1     1     2     0     0  2.769561444E+01  1.052032855E+02  7.435970670E+01  1.816291395E+02  1.250000000E+02  0.00000E+00  9.000E+00
      25     1     1     2     0     0 -8.094993693E+01 -1.328758629E+02  1.637302823E+02  2.581501357E+02  1.250000000E+02  0.00000E+00  9.000E+00
      21     1     1     2   502   512  5.325432249E+01  2.767257744E+01 -2.556743225E+02  2.626235968E+02  3.814697266E-06  0.00000E+00  9.000E+00
#rwgt            1           1   4.0589115640252901E-002           8      161252           0
</event>
<event>
      5   9999  3.79277E-02  1.16471E+01 -1.00000E+00  1.88401E-01
      21    -1     0     0   511   501  0.000000000E+00  0.000000000E+00  1.981013499E+02  1.981013499E+02  0.000000000E+00  0.00000E+00  9.000E+00
      21    -1     0     0   501   502  0.000000000E+00  0.000000000E+00 -2.001710323E+03  2.001710323E+03  0.000000000E+00  0.00000E+00  9.000E+00
      25     1     1     2     0     0  7.652191795E+01 -1.228298337E+02 -1.092163057E+03  1.108777667E+03  1.250000000E+02  0.00000E+00  9.000E+00
      25     1     1     2     0     0 -7.636778894E+01  1.344759057E+02 -8.900795571E+02  9.120210668E+02  1.250000000E+02  0.00000E+00  9.000E+00
      21     1     1     2   511   502 -1.541290043E-01 -1.164607202E+01  1.786336408E+02  1.790129392E+02  5.394796609E-06  0.00000E+00  9.000E+00
#rwgt            1           1   7.2433916175608196E-002           8      161339           0
</event>
<event>
      5   9999  3.79277E-02  9.23202E+01 -1.00000E+00  1.25409E-01
      21    -1     0     0   502   501  0.000000000E+00  0.000000000E+00  2.100161033E+02  2.100161033E+02  0.000000000E+00  0.00000E+00  9.000E+00
      21    -1     0     0   501   512  0.000000000E+00  0.000000000E+00 -6.028091429E+02  6.028091429E+02  0.000000000E+00  0.00000E+00  9.000E+00
      25     1     1     2     0     0  4.854327553E+01 -1.943364271E+02 -1.805251305E+02  2.972161154E+02  1.250000000E+02  0.00000E+00  9.000E+00
      25     1     1     2     0     0  3.977031464E+01  1.674343566E+02  6.577736086E+01  2.226378290E+02  1.250000000E+02  0.00000E+00  9.000E+00
      21     1     1     2   502   512 -8.831359018E+01  2.690207053E+01 -2.780452699E+02  2.929713018E+02  0.000000000E+00  0.00000E+00  9.000E+00
#rwgt            1           1   4.1324920116232788E-002           8      161587           0
</event>
<event>
      5   9999  3.79277E-02  1.27258E+02 -1.00000E+00  1.19296E-01
      21    -1     0     0   502   501  0.000000000E+00  0.000000000E+00  2.767222604E+02  2.767222604E+02  0.000000000E+00  0.00000E+00  9.000E+00
      21    -1     0     0   501   511  0.000000000E+00  0.000000000E+00 -4.137497464E+02  4.137497464E+02  0.000000000E+00  0.00000E+00  9.000E+00
      25     1     1     2     0     0 -1.162648192E+02  1.969804033E+02 -6.948275580E+01  2.697621931E+02  1.250000000E+02  0.00000E+00  9.000E+00
      25     1     1     2     0     0  8.573755136E+01 -7.343825312E+01  1.108070784E+02  2.016117887E+02  1.250000000E+02  0.00000E+00  9.000E+00
      21     1     1     2   502   511  3.052726786E+01 -1.235421502E+02 -1.783518085E+02  2.190980250E+02  1.907348633E-06  0.00000E+00  9.000E+00
#rwgt            1           1   9.4113361906795021E-002           8      161711           0
</event>
<event>
      5   9999  3.79277E-02  9.50524E+01 -1.00000E+00  1.24827E-01
      21    -1     0     0   512   501  0.000000000E+00  0.000000000E+00  7.923211518E+01  7.923211518E+01  0.000000000E+00  0.00000E+00  9.000E+00
      21    -1     0     0   501   502  0.000000000E+00  0.000000000E+00 -1.699485417E+03  1.699485417E+03  0.000000000E+00  0.00000E+00  9.000E+00
      25     1     1     2     0     0  3.699031947E+01  1.596112402E+01 -1.558639681E+02  2.038176091E+02  1.250000000E+02  0.00000E+00  9.000E+00
      25     1     1     2     0     0 -1.109909330E+02 -7.561739239E+01 -1.468347007E+03  1.479765154E+03  1.250000000E+02  0.00000E+00  9.000E+00
      21     1     1     2   512   502  7.400061356E+01  5.965626837E+01  3.957673294E+00  9.513476936E+01  3.481390917E-06  0.00000E+00  9.000E+00
#rwgt            1           1   3.3643180167442041E-002           8      161748           0
</event>
<event>
      5   9999  3.79277E-02  1.54466E+01 -1.00000E+00  1.76192E-01
      21    -1     0     0   502   511  0.000000000E+00  0.000000000E+00  4.596505629E+02  4.596505629E+02  0.000000000E+00  0.00000E+00  9.000E+00
      21    -1     0     0   501   502  0.000000000E+00  0.000000000E+00 -1.298657993E+02  1.298657993E+02  0.000000000E+00  0.00000E+00  9.000E+00
      25     1     1     2     0     0  8.271476404E+01  1.502922380E+02  2.526352578E+01  2.137585898E+02  1.250000000E+02  0.00000E+00  9.000E+00
      25     1     1     2     0     0 -7.549307247E+01 -1.366377767E+02  2.561018616E+02  3.249342234E+02  1.250000000E+02  0.00000E+00  9.000E+00
      21     1     1     2   501   511 -7.221691568E+00 -1.365446134E+01  4.841937611E+01  5.082354894E+01  0.000000000E+00  0.00000E+00  9.000E+00
#rwgt            1           1  0.11183073099938784                8      161895           0
</event>
<event>
      5   9999  3.79277E-02  1.84937E+01 -1.00000E+00  1.69225E-01
      21    -1     0     0   502   501  0.000000000E+00  0.000000000E+00  5.192600072E+02  5.192600072E+02  0.000000000E+00  0.00000E+00  9.000E+00
      21    -1     0     0   501   512  0.000000000E+00  0.000000000E+00 -1.571010872E+02  1.571010872E+02  0.000000000E+00  0.00000E+00  9.000E+00
      25     1     1     2     0     0 -5.473156069E+01 -1.276760399E+02  3.980233000E+02  4.397092929E+02  1.250000000E+02  0.00000E+00  9.000E+00
      25     1     1     2     0     0  7.322073607E+01  1.272682166E+02  3.821909136E+00  1.928680433E+02  1.250000000E+02  0.00000E+00  9.000E+00
      21     1     1     2   502   512 -1.848917538E+01  4.078233465E-01 -3.968628919E+01  4.378375812E+01  6.743495762E-07  0.00000E+00  9.000E+00
#rwgt            1           1   3.5383727224394416E-002           8      162165           0
</event>
<event>
      5   9999  3.79277E-02  1.57944E+01 -1.00000E+00  1.75298E-01
      21    -1     0     0   511   501  0.000000000E+00  0.000000000E+00  7.538182925E+02  7.538182925E+02  0.000000000E+00  0.00000E+00  9.000E+00
      21    -1     0     0   501   502  0.000000000E+00  0.000000000E+00 -5.413047953E+01  5.413047953E+01  0.000000000E+00  0.00000E+00  9.000E+00
      25     1     1     2     0     0 -8.426489557E+01 -5.913165386E+01  1.283764780E+02  2.066461837E+02  1.250000000E+02  0.00000E+00  9.000E+00
      25     1     1     2     0     0  9.183164677E+01  7.299550625E+01  5.126381035E+02  5.405406742E+02  1.250000000E+02  0.00000E+00  9.000E+00
      21     1     1     2   511   502 -7.566751203E+00 -1.386385239E+01  5.867323141E+01  6.076191415E+01  1.168007728E-06  0.00000E+00  9.000E+00
#rwgt            1           1   4.0372738383683875E-002           8      162339           0
</event>
<event>
      5   9999  3.79277E-02  1.53341E+02 -1.00000E+00  1.16016E-01
      21    -1     0     0   502   501  0.000000000E+00  0.000000000E+00  1.848771677E+02  1.848771677E+02  0.000000000E+00  0.00000E+00  9.000E+00
      21    -1     0     0   512   502  0.000000000E+00  0.000000000E+00 -5.828012867E+02  5.828012867E+02  0.000000000E+00  0.00000E+00  9.000E+00
      25     1     1     2     0     0  1.042839836E+01  1.931467882E+02 -3.910667623E+01  2.335995835E+02  1.250000000E+02  0.00000E+00  9.000E+00
      25     1     1     2     0     0 -1.533334324E+02 -1.375455770E+02 -2.401195531E+02  3.401651466E+02  1.250000000E+02  0.00000E+00  9.000E+00
      21     1     1     2   512   501  1.429050340E+02 -5.560121118E+01 -1.186978897E+02  1.939137243E+02  1.348699152E-06  0.00000E+00  9.000E+00
#rwgt            1           1   5.0377065230664285E-002           8      162553           0
</event>
<event>
      5   9999  3.79277E-02  3.70181E+01 -1.00000E+00  1.46958E-01
      21    -1     0     0   511   501  0.000000000E+00  0.000000000E+00  1.266052911E+03  1.266052911E+03  0.000000000E+00  0.00000E+00  9.000E+00
      21    -1     0     0   501   502  0.000000000E+00  0.000000000E+00 -5.504244254E+01  5.504244254E+01  0.000000000E+00  0.00000E+00  9.000E+00
      25     1     1     2     0     0  3.111139472E+01 -8.994865370E+01  4.544110727E+02  4.808046403E+02  1.250000000E+02  0.00000E+00  9.000E+00
      25     1     1     2     0     0 -3.556912360E+01  5.319993582E+01  7.791246681E+01  1.605949819E+02  1.250000000E+02  0.00000E+00  9.000E+00
      21     1     1     2   511   502  4.457728879E+00  3.674871788E+01  6.786869294E+02  6.796957318E+02  7.629394531E-06  0.00000E+00  9.000E+00
#rwgt            1           1   3.9401570731169150E-002           8      162676           0
</event>
<event>
      5   9999  3.79277E-02  6.74807E+01 -1.00000E+00  1.32032E-01
      21    -1     0     0   512   501  0.000000000E+00  0.000000000E+00  3.422307646E+02  3.422307646E+02  0.000000000E+00  0.00000E+00  9.000E+00
      21    -1     0     0   501   502  0.000000000E+00  0.000000000E+00 -6.909212034E+02  6.909212034E+02  0.000000000E+00  0.00000E+00  9.000E+00
      25     1     1     2     0     0  1.403230366E+02  2.655953283E+01 -2.382728711E+02  3.046225935E+02  1.250000000E+02  0.00000E+00  9.000E+00
      25     1     1     2     0     0 -1.802133625E+02 -8.098747763E+01 -3.824507476E+02  4.482514940E+02  1.250000000E+02  0.00000E+00  9.000E+00
      21     1     1     2   512   502  3.989032593E+01  5.442794480E+01  2.720331800E+02  2.802778805E+02  6.607249480E-06  0.00000E+00  9.000E+00
#rwgt            1           1   4.4949835451372384E-002           8      162742           0
</event>
<event>
      5   9999  3.79277E-02  9.26954E+01 -1.00000E+00  1.25328E-01
      21    -1     0     0   502   501  0.000000000E+00  0.000000000E+00  1.794543905E+02  1.794543905E+02  0.000000000E+00  0.00000E+00  9.000E+00
      21    -1     0     0   511   502  0.000000000E+00  0.000000000E+00 -6.986285295E+02  6.986285295E+02  0.000000000E+00  0.00000E+00  9.000E+00
      25     1     1     2     0     0 -1.055790923E+02 -3.312707596E+01 -1.582003288E+02  2.299928084E+02  1.250000000E+02  0.00000E+00  9.000E+00
      25     1     1     2     0     0  1.302218466E+01  3.819261825E+01  1.079953192E+02  1.700477649E+02  1.250000000E+02  0.00000E+00  9.000E+00
      21     1     1     2   511   501  9.255690763E+01 -5.065542280E+00 -4.689691295E+02  4.780423467E+02  9.344061824E-06  0.00000E+00  9.000E+00
#rwgt            1           1   4.6647551266665845E-002           8      162809           0
</event>
<event>
      5   9999  3.79277E-02  5.56431E+01 -1.00000E+00  1.36477E-01
      21    -1     0     0   502   501  0.000000000E+00  0.000000000E+00  9.721335641E+02  9.721335641E+02  0.000000000E+00  0.00000E+00  9.000E+00
      21    -1     0     0   501   512  0.000000000E+00  0.000000000E+00 -1.675453807E+02  1.675453807E+02  0.000000000E+00  0.00000E+00  9.000E+00
      25     1     1     2     0     0 -1.920247494E+02  2.278959285E+02  5.258124144E+02  6.171821075E+02  1.250000000E+02  0.00000E+00  9.000E+00
      25     1     1     2     0     0  1.911285586E+02 -1.722600240E+02  3.369472928E+02  4.419978732E+02  1.250000000E+02  0.00000E+00  9.000E+00
      21     1     1     2   502   512  8.961908007E-01 -5.563590454E+01 -5.817152383E+01  8.049896407E+01  1.784161275E-06  0.00000E+00  9.000E+00
#rwgt            1           1   3.9422446670551801E-002           8      162880           0
</event>
<event>
      5   9999  3.79277E-02  5.06132E+01 -1.00000E+00  1.38774E-01
       2    -1     0     0   502     0  0.000000000E+00  0.000000000E+00  8.581330151E+02  8.581330151E+02  0.000000000E+00  0.00000E+00  9.000E+00
      21    -1     0     0   501   502  0.000000000E+00  0.000000000E+00 -1.580093773E+02  1.580093773E+02  0.000000000E+00  0.00000E+00  9.000E+00
      25     1     1     2     0     0 -1.217326100E+02  2.215655264E+02  9.386823829E+01  2.972311508E+02  1.250000000E+02  0.00000E+00  9.000E+00
      25     1     1     2     0     0  1.000609593E+02 -1.758267871E+02  2.035138247E+02  3.130018075E+02  1.250000000E+02  0.00000E+00  9.000E+00
       2     1     1     2   501     0  2.167165073E+01 -4.573873925E+01  4.027415748E+02  4.059094342E+02  0.000000000E+00  0.00000E+00  9.000E+00
#rwgt            2          18   9.2366460449550005E-005           8      163043           0
</event>
<event>
      5   9999  3.79277E-02  9.05426E+01 -1.00000E+00  1.25800E-01
      21    -1     0     0   511   501  0.000000000E+00  0.000000000E+00  1.291323947E+02  1.291323947E+02  0.000000000E+00  0.00000E+00  9.000E+00
      21    -1     0     0   501   502  0.000000000E+00  0.000000000E+00 -3.864353685E+02  3.864353685E+02  0.000000000E+00  0.00000E+00  9.000E+00
      25     1     1     2     0     0 -8.595393852E+01 -1.005107150E+02 -1.437190099E+02  2.318849654E+02  1.250000000E+02  0.00000E+00  9.000E+00
      25     1     1     2     0     0  1.328163977E+01  4.650421894E+01 -1.354325340E+02  1.905413750E+02  1.250000000E+02  0.00000E+00  9.000E+00
      21     1     1     2   511   502  7.267229875E+01  5.400649604E+01  2.184857004E+01  9.314142275E+01  2.286830675E-06  0.00000E+00  9.000E+00
#rwgt            1           1  0.10766380579669034                8      163092           0
</event>
<event>
      5   9999  3.79277E-02  4.59889E+01 -1.00000E+00  1.41180E-01
      21    -1     0     0   502   501  0.000000000E+00  0.000000000E+00  4.420895655E+02  4.420895655E+02  0.000000000E+00  0.00000E+00  9.000E+00
      21    -1     0     0   501   512  0.000000000E+00  0.000000000E+00 -1.487720173E+02  1.487720173E+02  0.000000000E+00  0.00000E+00  9.000E+00
      25     1     1     2     0     0  1.947466238E+02 -4.480409554E+01  1.034430273E+02  2.574084582E+02  1.250000000E+02  0.00000E+00  9.000E+00
      25     1     1     2     0     0 -1.835440252E+02  2.004893625E-01  1.812903685E+02  2.866699271E+02  1.250000000E+02  0.00000E+00  9.000E+00
      21     1     1     2   502   512 -1.120259855E+01  4.460360617E+01  8.584152355E+00  4.678319751E+01  1.046057270E-06  0.00000E+00  9.000E+00
#rwgt            1           1   3.0020327441620396E-002           8      163318           0
</event>
<event>
      5   9999  3.79277E-02  7.05728E+01 -1.00000E+00  1.31042E-01
      21    -1     0     0   502   501  0.000000000E+00  0.000000000E+00  1.792253940E+02  1.792253940E+02  0.000000000E+00  0.00000E+00  9.000E+00
       2    -1     0     0   501     0  0.000000000E+00  0.000000000E+00 -1.851213559E+03  1.851213559E+03  0.000000000E+00  0.00000E+00  9.000E+00
      25     1     1     2     0     0  9.190022092E+01  4.914483985E+01  1.076861475E+02  1.951465405E+02  1.250000000E+02  0.00000E+00  9.000E+00
      25     1     1     2     0     0 -9.388974557E+01 -1.196895852E+02 -3.326726045E+02  3.865707476E+02  1.250000000E+02  0.00000E+00  9.000E+00
       2     1     1     2   502     0  1.989524651E+00  7.054474538E+01 -1.447001708E+03  1.448721665E+03  1.525878906E-05  0.00000E+00  9.000E+00
#rwgt            1           1   3.1977759851175798E-002           8      163478           0
</event>
<event>
      5   9999  3.79277E-02  9.22758E+01 -1.00000E+00  1.25419E-01
      21    -1     0     0   502   511  0.000000000E+00  0.000000000E+00  2.597243085E+03  2.597243085E+03  0.000000000E+00  0.00000E+00  9.000E+00
      21    -1     0     0   501   502  0.000000000E+00  0.000000000E+00 -1.001185497E+02  1.001185497E+02  0.000000000E+00  0.00000E+00  9.000E+00
      25     1     1     2     0     0 -1.095830053E+02  2.587049429E+02  3.158861206E+02  4.408465989E+02  1.250000000E+02  0.00000E+00  9.000E+00
      25     1     1     2     0     0  2.577093278E+01 -2.973100221E+02  6.864174227E+02  7.588486466E+02  1.250000000E+02  0.00000E+00  9.000E+00
      21     1     1     2   501   511  8.381207250E+01  3.860507920E+01  1.494820992E+03  1.497666390E+03  2.157918644E-05  0.00000E+00  9.000E+00
#rwgt            1           1   4.3161149465635394E-002           8      163683           0
</event>
<event>
      5   9999  3.79277E-02  9.66657E+01 -1.00000E+00  1.24494E-01
      21    -1     0     0   502   512  0.000000000E+00  0.000000000E+00  1.348058966E+02  1.348058966E+02  0.000000000E+00  0.00000E+00  9.000E+00
      21    -1     0     0   501   502  0.000000000E+00  0.000000000E+00 -5.555653824E+02  5.555653824E+02  0.000000000E+00  0.00000E+00  9.000E+00
      25     1     1     2     0     0  7.040225227E+01 -8.759852624E+01 -3.924647221E+02  4.269467614E+02  1.250000000E+02  0.00000E+00  9.000E+00
      25     1     1     2     0     0  2.626341933E+01  8.748382454E+01 -5.302508813E+01  1.636454910E+02  1.250000000E+02  0.00000E+00  9.000E+00
      21     1     1     2   501   512 -9.666567160E+01  1.147016968E-01  2.473032448E+01  9.977902671E+01  9.536743164E-07  0.00000E+00  9.000E+00
#rwgt            1           1   4.9036733905723266E-002           8      163886           0
</event>
<event>
      5   9999  3.79277E-02  2.04607E+02 -1.00000E+00  1.11289E-01
       2    -1     0     0   502     0  0.000000000E+00  0.000000000E+00  2.800046770E+03  2.800046770E+03  0.000000000E+00  0.00000E+00  9.000E+00
      21    -1     0     0   501   502  0.000000000E+00  0.000000000E+00 -8.255984887E+01  8.255984887E+01  0.000000000E+00  0.00000E+00  9.000E+00
      25     1     1     2     0     0 -8.300005882E+01  1.631081691E+02  1.708127802E+02  2.798129562E+02  1.250000000E+02  0.00000E+00  9.000E+00
      25     1     1     2     0     0  2.135620261E+02 -5.572738672E+00  6.570581886E+02  7.021326496E+02  1.250000000E+02  0.00000E+00  9.000E+00
       2     1     1     2   501     0 -1.305619673E+02 -1.575354304E+02  1.889615952E+03  1.900661013E+03  3.051757812E-05  0.00000E+00  9.000E+00
#rwgt            1           1   1.4399242135352231E-002           8      163947           0
</event>
<event>
      5   9999  3.79277E-02  1.55876E+02 -1.00000E+00  1.15736E-01
      21    -1     0     0   502   501  0.000000000E+00  0.000000000E+00  4.307955221E+02  4.307955221E+02  0.000000000E+00  0.00000E+00  9.000E+00
       2    -1     0     0   501     0  0.000000000E+00  0.000000000E+00 -4.717985821E+02  4.717985821E+02  0.000000000E+00  0.00000E+00  9.000E+00
      25     1     1     2     0     0  1.336715900E+02  3.935163768E+01  2.621115312E+01  1.890202897E+02  1.250000000E+02  0.00000E+00  9.000E+00
      25     1     1     2     0     0 -5.700859694E+01 -1.750719950E+02  2.653345426E+02  3.463056498E+02  1.250000000E+02  0.00000E+00  9.000E+00
       2     1     1     2   502     0 -7.666299310E+01  1.357203573E+02 -3.325487557E+02  3.672681648E+02  3.814697266E-06  0.00000E+00  9.000E+00
#rwgt            1           1   2.7174142655571300E-002           8      164173           0
</event>
<event>
      5   9999  3.79277E-02  3.40522E+01 -1.00000E+00  1.49314E-01
      21    -1     0     0   502   511  0.000000000E+00  0.000000000E+00  5.173678633E+01  5.173678633E+01  0.000000000E+00  0.00000E+00  9.000E+00
      21    -1     0     0   501   502  0.000000000E+00  0.000000000E+00 -9.916471288E+02  9.916471288E+02  0.000000000E+00  0.00000E+00  9.000E+00
      25     1     1     2     0     0 -1.248810245E+02  3.127656987E+01 -6.183574703E+02  6.438667993E+02  1.250000000E+02  0.00000E+00  9.000E+00
      25     1     1     2     0     0  1.038332672E+02 -4.508280540E+00 -3.268602606E+02  3.650538343E+02  1.250000000E+02  0.00000E+00  9.000E+00
      21     1     1     2   501   511  2.104775728E+01 -2.676828933E+01  5.307388504E+00  3.446328151E+01  6.848052319E-07  0.00000E+00  9.000E+00
#rwgt            1           1   2.6906282584637654E-002           8      164273           0
</event>
<event>
      5   9999  3.79277E-02  8.23391E+00 -1.00000E+00  2.06047E-01
      21    -1     0     0   502   512  0.000000000E+00  0.000000000E+00  1.142672176E+03  1.142672176E+03  0.000000000E+00  0.00000E+00  9.000E+00
      21    -1     0     0   501   502  0.000000000E+00  0.000000000E+00 -3.676775807E+01  3.676775807E+01  0.000000000E+00  0.00000E+00  9.000E+00
      25     1     1     2     0     0  1.471974695E+01  1.341875698E+02  3.000789695E+02  3.519877310E+02  1.250000000E+02  0.00000E+00  9.000E+00
      25     1     1     2     0     0 -8.791563140E+00 -1.284732048E+02  7.782092840E+02  7.986346759E+02  1.250000000E+02  0.00000E+00  9.000E+00
      21     1     1     2   501   512 -5.928183811E+00 -5.714364992E+00  2.761616463E+01  2.881752729E+01  3.371747881E-07  0.00000E+00  9.000E+00
#rwgt            1           1   4.4039698059210167E-002           8      164522           0
</event>
<event>
      5   9999  3.79277E-02  6.51199E+01 -1.00000E+00  1.32830E-01
      21    -1     0     0   511   501  0.000000000E+00  0.000000000E+00  1.463325099E+03  1.463325099E+03  0.000000000E+00  0.00000E+00  9.000E+00
      21    -1     0     0   501   502  0.000000000E+00  0.000000000E+00 -4.882800294E+01  4.882800294E+01  0.000000000E+00  0.00000E+00  9.000E+00
      25     1     1     2     0     0 -3.568460165E+01  4.998160283E-01  8.376461179E+02  8.476730853E+02  1.250000000E+02  0.00000E+00  9.000E+00
      25     1     1     2     0     0  6.810092676E+01  5.597838744E+01  9.897546404E+01  1.821879759E+02  1.250000000E+02  0.00000E+00  9.000E+00
      21     1     1     2   511   502 -3.241632511E+01 -5.647820347E+01  4.778755144E+02  4.822920410E+02  7.629394531E-06  0.00000E+00  9.000E+00
#rwgt            1           1   3.7271537479462921E-002           8      164962           0
</event>
<event>
      5   9999  3.79277E-02  9.07447E+01 -1.00000E+00  1.25755E-01
      21    -1     0     0   512   501  0.000000000E+00  0.000000000E+00  3.956642455E+02  3.956642455E+02  0.000000000E+00  0.00000E+00  9.000E+00
      21    -1     0     0   501   502  0.000000000E+00  0.000000000E+00 -4.838035877E+02  4.838035877E+02  0.000000000E+00  0.00000E+00  9.000E+00
      25     1     1     2     0     0  2.252017341E+02 -2.751207936E+02 -1.703000919E+02  4.135630465E+02  1.250000000E+02  0.00000E+00  9.000E+00
      25     1     1     2     0     0 -2.764306287E+02  2.002195362E+02  3.949957880E+01  3.656322905E+02  1.250000000E+02  0.00000E+00  9.000E+00
      21     1     1     2   512   502  5.122889458E+01  7.490125741E+01  4.266117095E+01  1.002724963E+02  1.719260824E-06  0.00000E+00  9.000E+00
#rwgt            1           1   2.9711886935569219E-002           8      165091           0
</event>
<event>
      5   9999  3.79277E-02  5.00425E+01 -1.00000E+00  1.39054E-01
      21    -1     0     0   502   501  0.000000000E+00  0.000000000E+00  7.120059519E+01  7.120059519E+01  0.000000000E+00  0.00000E+00  9.000E+00
      21    -1     0     0   511   502  0.000000000E+00  0.000000000E+00 -4.076464026E+02  4.076464026E+02  0.000000000E+00  0.00000E+00  9.000E+00
      25     1     1     2     0     0  2.344315440E+01  4.413422832E+01 -1.620169613E+02  2.106464036E+02  1.250000000E+02  0.00000E+00  9.000E+00
      25     1     1     2     0     0  2.530159409E+01 -5.545685762E+01 -7.772709738E+01  1.593177184E+02  1.250000000E+02  0.00000E+00  9.000E+00
      21     1     1     2   511   501 -4.874474849E+01  1.132262930E+01 -9.670174877E+01  1.088828759E+02  0.000000000E+00  0.00000E+00  9.000E+00
#rwgt            1           1   4.3022778075246237E-002           8      165176           0
</event>
<event>
      5   9999  3.79277E-02  8.40698E+01 -1.00000E+00  1.27315E-01
      21    -1     0     0   502   512  0.000000000E+00  0.000000000E+00  1.674550340E+02  1.674550340E+02  0.000000000E+00  0.00000E+00  9.000E+00
      21    -1     0     0   501   502  0.000000000E+00  0.000000000E+00 -1.415965881E+03  1.415965881E+03  0.000000000E+00  0.00000E+00  9.000E+00
      25     1     1     2     0     0 -5.069580002E+01 -1.027306839E+02 -9.725666672E+02  9.872358278E+02  1.250000000E+02  0.00000E+00  9.000E+00
      25     1     1     2     0     0  1.217406443E+02  5.778227720E+01 -4.035138534E+02  4.434050134E+02  1.250000000E+02  0.00000E+00  9.000E+00
      21     1     1     2   501   512 -7.104484429E+01  4.494840674E+01  1.275696739E+02  1.527800735E+02  1.907348633E-06  0.00000E+00  9.000E+00
#rwgt            1           1   5.1775408903763094E-002           8      165288           0
</event>
<event>
      5   9999  3.79277E-02  4.88929E+01 -1.00000E+00  1.39633E-01
      21    -1     0     0   502   511  0.000000000E+00  0.000000000E+00  1.708309101E+03  1.708309101E+03  0.000000000E+00  0.00000E+00  9.000E+00
      21    -1     0     0   501   502  0.000000000E+00  0.000000000E+00 -1.229916515E+02  1.229916515E+02  0.000000000E+00  0.00000E+00  9.000E+00
      25     1     1     2     0     0  1.520291800E+02 -7.715193326E+01  1.020599753E+02  2.347478028E+02  1.250000000E+02  0.00000E+00  9.000E+00
      25     1     1     2     0     0 -1.999954850E+02  8.662531099E+01  2.247764298E+02  3.371225029E+02  1.250000000E+02  0.00000E+00  9.000E+00
      21     1     1     2   501   511  4.796630507E+01 -9.473377733E+00  1.258481044E+03  1.259430447E+03  2.642899792E-05  0.00000E+00  9.000E+00
#rwgt            1           1   3.4115554259902398E-002           8      165416           0
</event>
<event>
      5   9999  3.79277E-02  8.66945E+01 -1.00000E+00  1.26683E-01
      21    -1     0     0   502   501  0.000000000E+00  0.000000000E+00  2.560105119E+02  2.560105119E+02  0.000000000E+00  0.00000E+00  9.000E+00
      21    -1     0     0   501   512  0.000000000E+00  0.000000000E+00 -5.431271653E+02  5.431271653E+02  0.000000000E+00  0.00000E+00  9.000E+00
      25     1     1     2     0     0 -2.539776980E+02  4.433108980E+01 -7.892722831E+01  2.971942529E+02  1.250000000E+02  0.00000E+00  9.000E+00
      25     1     1     2     0     0  3.182249900E+02  1.387741123E+01 -8.722253304E+01  3.531182480E+02  1.250000000E+02  0.00000E+00  9.000E+00
      21     1     1     2   502   512 -6.424729208E+01 -5.820850104E+01 -1.209668920E+02  1.488251762E+02  0.000000000E+00  0.00000E+00  9.000E+00
#rwgt            1           1   3.2459286785093966E-002           8      165573           0
</event>
<event>
      5   9999  3.79277E-02  5.90609E+01 -1.00000E+00  1.35071E-01
      21    -1     0     0   502   501  0.000000000E+00  0.000000000E+00  1.118425556E+02  1.118425556E+02  0.000000000E+00  0.00000E+00  9.000E+00
      21    -1     0     0   511   502  0.000000000E+00  0.000000000E+00 -2.024047454E+03  2.024047454E+03  0.000000000E+00  0.00000E+00  9.000E+00
      25     1     1     2     0     0  1.234005883E+02 -1.945972329E+02 -4.046198232E+02  4.821182319E+02  1.250000000E+02  0.00000E+00  9.000E+00
      25     1     1     2     0     0 -1.652506491E+02  1.529228014E+02 -1.563983431E+02  3.012948754E+02  1.250000000E+02  0.00000E+00  9.000E+00
      21     1     1     2   511   501  4.185006079E+01  4.167443144E+01 -1.351186732E+03  1.352476902E+03  2.157918644E-05  0.00000E+00  9.000E+00
#rwgt            1           1   3.5341557895037359E-002           8      165649           0
</event>
<event>
      5   9999  3.79277E-02  1.53757E+01 -1.00000E+00  1.76377E-01
      21    -1     0     0   502   512  0.000000000E+00  0.000000000E+00  1.765130310E+02  1.765130310E+02  0.000000000E+00  0.00000E+00  9.000E+00
      21    -1     0     0   501   502  0.000000000E+00  0.000000000E+00 -5.455666397E+02  5.455666397E+02  0.000000000E+00  0.00000E+00  9.000E+00
      25     1     1     2     0     0 -2.096663504E+02 -1.463070432E+02 -7.030506048E+01  2.931442152E+02  1.250000000E+02  0.00000E+00  9.000E+00
      25     1     1     2     0     0  2.066858386E+02  1.613911413E+02 -2.927697660E+02  4.124382041E+02  1.250000000E+02  0.00000E+00  9.000E+00
      21     1     1     2   501   512  2.980511792E+00 -1.508409808E+01 -5.978782257E+00  1.649725137E+01  3.039252468E-07  0.00000E+00  9.000E+00
#rwgt            1           1   4.0479915319795362E-002           8      165824           0
</event>
<event>
      5   9999  3.79277E-02  1.24274E+01 -1.00000E+00  1.85444E-01
      21    -1     0     0   502   511  0.000000000E+00  0.000000000E+00  1.087632712E+02  1.087632712E+02  0.000000000E+00  0.00000E+00  9.000E+00
      21    -1     0     0   501   502  0.000000000E+00  0.000000000E+00 -4.465194415E+02  4.465194415E+02  0.000000000E+00  0.00000E+00  9.000E+00
      25     1     1     2     0     0  6.959654131E+01 -2.339748226E+01 -2.183454020E+01  1.466044607E+02  1.250000000E+02  0.00000E+00  9.000E+00
      25     1     1     2     0     0 -6.116718538E+01  3.252913666E+01 -3.469618402E+02  3.752427052E+02  1.250000000E+02  0.00000E+00  9.000E+00
      21     1     1     2   501   511 -8.429355931E+00 -9.131654395E+00  3.104021004E+01  3.343554684E+01  0.000000000E+00  0.00000E+00  9.000E+00
#rwgt            1           1   2.7568664299763165E-002           8      166088           0
</event>
<event>
      5   9999  3.79277E-02  4.83914E+01 -1.00000E+00  1.39891E-01
      21    -1     0     0   502   512  0.000000000E+00  0.000000000E+00  1.075690599E+02  1.075690599E+02  0.000000000E+00  0.00000E+00  9.000E+00
      21    -1     0     0   501   502  0.000000000E+00  0.000000000E+00 -7.035994097E+02  7.035994097E+02  0.000000000E+00  0.00000E+00  9.000E+00
      25     1     1     2     0     0 -1.406696698E+02  1.204031095E+02 -2.441969944E+02  3.309713535E+02  1.250000000E+02  0.00000E+00  9.000E+00
      25     1     1     2     0     0  1.886238667E+02 -1.139131950E+02 -3.496172661E+02  4.317550369E+02  1.250000000E+02  0.00000E+00  9.000E+00
      21     1     1     2   501   512 -4.795419691E+01 -6.489914429E+00 -2.216089249E+00  4.844207925E+01  5.599348017E-07  0.00000E+00  9.000E+00
#rwgt            1           1   2.7296609840981458E-002           8      166571           0
</event>
<event>
      5   9999  3.79277E-02  3.50979E+01 -1.00000E+00  1.48452E-01
      21    -1     0     0   502   511  0.000000000E+00  0.000000000E+00  4.761981436E+02  4.761981436E+02  0.000000000E+00  0.00000E+00  9.000E+00
      21    -1     0     0   501   502  0.000000000E+00  0.000000000E+00 -5.464695852E+02  5.464695852E+02  0.000000000E+00  0.00000E+00  9.000E+00
      25     1     1     2     0     0  1.516455595E+02  1.102043602E+02 -4.307358149E+01  2.293942243E+02  1.250000000E+02  0.00000E+00  9.000E+00
      25     1     1     2     0     0 -1.282209092E+02 -1.363414816E+02 -3.784258715E+02  4.402961973E+02  1.250000000E+02  0.00000E+00  9.000E+00
      21     1     1     2   501   511 -2.342465024E+01  2.613712135E+01  3.512280114E+02  3.529773072E+02  6.607249480E-06  0.00000E+00  9.000E+00
#rwgt            1           1   3.8481736391324892E-002           8      166685           0
</event>
<event>
      5   9999  3.79277E-02  5.80809E+01 -1.00000E+00  1.35462E-01
      21    -1     0     0   502   512  0.000000000E+00  0.000000000E+00  1.029152102E+03  1.029152102E+03  0.000000000E+00  0.00000E+00  9.000E+00
      21    -1     0     0   501   502  0.000000000E+00  0.000000000E+00 -1.300679091E+03  1.300679091E+03  0.000000000E+00  0.00000E+00  9.000E+00
      25     1     1     2     0     0  5.442498291E+01 -9.041838932E+01 -1.083905050E+03  1.096180971E+03  1.250000000E+02  0.00000E+00  9.000E+00
      25     1     1     2     0     0 -5.704174454E+01  3.239650697E+01 -1.860444466E+02  2.335397833E+02  1.250000000E+02  0.00000E+00  9.000E+00
      21     1     1     2   501   512  2.616761627E+00  5.802188235E+01  9.984225078E+02  1.000110439E+03  1.078959322E-05  0.00000E+00  9.000E+00
#rwgt            1           1   4.1240546854511791E-002           8      166782           0
</event>
<event>
      5   9999  3.79277E-02  6.25508E+01 -1.00000E+00  1.33744E-01
      21    -1     0     0   511   501  0.000000000E+00  0.000000000E+00  4.275740470E+01  4.275740470E+01  0.000000000E+00  0.00000E+00  9.000E+00
      21    -1     0     0   501   502  0.000000000E+00  0.000000000E+00 -9.993336812E+02  9.993336812E+02  0.000000000E+00  0.00000E+00  9.000E+00
      25     1     1     2     0     0  5.817255217E+01  1.067843044E+02 -5.181017936E+02  5.466638840E+02  1.250000000E+02  0.00000E+00  9.000E+00
      25     1     1     2     0     0 -9.500503785E+01 -5.622766821E+01 -2.942838710E+02  3.382536099E+02  1.250000000E+02  0.00000E+00  9.000E+00
      21     1     1     2   511   502  3.683248568E+01 -5.055663623E+01 -1.441906119E+02  1.571735921E+02  0.000000000E+00  0.00000E+00  9.000E+00
#rwgt            1           1   3.4084676961090472E-002           8      166881           0
</event>
<event>
      5   9999  3.79277E-02  9.98793E+01 -1.00000E+00  1.23852E-01
      21    -1     0     0   512   501  0.000000000E+00  0.000000000E+00  1.250130790E+03  1.250130790E+03  0.000000000E+00  0.00000E+00  9.000E+00
      21    -1     0     0   501   502  0.000000000E+00  0.000000000E+00 -3.533200633E+02  3.533200633E+02  0.000000000E+00  0.00000E+00  9.000E+00
      25     1     1     2     0     0 -2.197136711E+02 -1.568807619E+01 -1.437504530E+01  2.536766740E+02  1.250000000E+02  0.00000E+00  9.000E+00
      25     1     1     2     0     0  1.267386783E+02 -2.080196852E+01 -1.800106405E+02  2.540162301E+02  1.250000000E+02  0.00000E+00  9.000E+00
      21     1     1     2   512   502  9.297499283E+01  3.649004471E+01  1.091196413E+03  1.095757949E+03  2.157918644E-05  0.00000E+00  9.000E+00
#rwgt            1           1   3.1873103955563066E-002           8      166951           0
</event>
<event>
      5   9999  3.79277E-02  6.83788E+01 -1.00000E+00  1.31738E-01
      21    -1     0     0   502   501  0.000000000E+00  0.000000000E+00  9.981903527E+02  9.981903527E+02  0.000000000E+00  0.00000E+00  9.000E+00
      21    -1     0     0   511   502  0.000000000E+00  0.000000000E+00 -5.364771283E+02  5.364771283E+02  0.000000000E+00  0.00000E+00  9.000E+00
      25     1     1     2     0     0  9.759882776E+01 -4.243701187E+01  4.986795725E+02  5.250073782E+02  1.250000000E+02  0.00000E+00  9.000E+00
      25     1     1     2     0     0 -2.973951118E+01  3.402454945E+01  4.749493757E+02  4.931977474E+02  1.250000000E+02  0.00000E+00  9.000E+00
      21     1     1     2   511   501 -6.785931658E+01  8.412462422E+00 -5.119157237E+02  5.164623554E+02  1.078959322E-05  0.00000E+00  9.000E+00
#rwgt            1           1   5.7032540604692053E-002           8      167107           0
</event>
<event>
      5   9999  3.79277E-02  9.84433E+01 -1.00000E+00  1.24135E-01
      21    -1     0     0   502   501  0.000000000E+00  0.000000000E+00  3.492341669E+02  3.492341669E+02  0.000000000E+00  0.00000E+00  9.000E+00
      21    -1     0     0   512   502  0.000000000E+00  0.000000000E+00 -5.333137376E+02  5.333137376E+02  0.000000000E+00  0.00000E+00  9.000E+00
      25     1     1     2     0     0  2.316236175E+02 -1.813570674E+02  4.692896280E+01  3.230591488E+02  1.250000000E+02  0.00000E+00  9.000E+00
      25     1     1     2     0     0 -1.860481913E+02  9.409901310E+01  6.159094181E+01  2.507728013E+02  1.250000000E+02  0.00000E+00  9.000E+00
      21     1     1     2   512   501 -4.557542623E+01  8.725805433E+01 -2.925994754E+02  3.087159544E+02  3.814697266E-06  0.00000E+00  9.000E+00
#rwgt            1           1   4.7584255287305928E-002           8      167181           0
</event>
<event>
      5   9999  3.79277E-02  2.36081E+01 -1.00000E+00  1.60637E-01
      21    -1     0     0   502   501  0.000000000E+00  0.000000000E+00  3.546035025E+02  3.546035025E+02  0.000000000E+00  0.00000E+00  9.000E+00
      21    -1     0     0   501   511  0.000000000E+00  0.000000000E+00 -2.810260597E+02  2.810260597E+02  0.000000000E+00  0.00000E+00  9.000E+00
      25     1     1     2     0     0  7.603442359E+01  1.151142861E+02  2.496285829E+02  3.114032142E+02  1.250000000E+02  0.00000E+00  9.000E+00
      25     1     1     2     0     0 -5.440347105E+01 -1.245717523E+02 -4.367822133E+01  1.897647126E+02  1.250000000E+02  0.00000E+00  9.000E+00
      21     1     1     2   502   511 -2.163095254E+01  9.457466214E+00 -1.323729187E+02  1.344616353E+02  1.907348633E-06  0.00000E+00  9.000E+00
#rwgt            1           1   4.2071350252353187E-002           8      167277           0
</event>
<event>
      5   9999  3.79277E-02  2.57436E+01 -1.00000E+00  1.57803E-01
      21    -1     0     0   512   501  0.000000000E+00  0.000000000E+00  7.154094218E+01  7.154094218E+01  0.000000000E+00  0.00000E+00  9.000E+00
      21    -1     0     0   501   502  0.000000000E+00  0.000000000E+00 -7.002692784E+02  7.002692784E+02  0.000000000E+00  0.00000E+00  9.000E+00
      25     1     1     2     0     0 -6.344040841E+01 -1.149876223E+02 -1.570307878E+02  2.398551793E+02  1.250000000E+02  0.00000E+00  9.000E+00
      25     1     1     2     0     0  8.648734561E+01  1.035172576E+02 -4.716238749E+02  5.062113817E+02  1.250000000E+02  0.00000E+00  9.000E+00
      21     1     1     2   512   502 -2.304693720E+01  1.147036476E+01 -7.367347211E-02  2.574365960E+01  2.763141636E-07  0.00000E+00  9.000E+00
#rwgt            1           1   2.5701880902308918E-002           8      167449           0
</event>
<event>
      5   9999  3.79277E-02  4.26505E+01 -1.00000E+00  1.43133E-01
      21    -1     0     0   502   501  0.000000000E+00  0.000000000E+00  2.118126540E+01  2.118126540E+01  0.000000000E+00  0.00000E+00  9.000E+00
      21    -1     0     0   501   511  0.000000000E+00  0.000000000E+00 -1.809064761E+03  1.809064761E+03  0.000000000E+00  0.00000E+00  9.000E+00
      25     1     1     2     0     0 -1.481002760E+01  7.112201491E+01 -3.143204213E+02  3.459768853E+02  1.250000000E+02  0.00000E+00  9.000E+00
      25     1     1     2     0     0 -1.297221320E+01 -3.876137585E+01 -1.228830165E+03  1.235847603E+03  1.250000000E+02  0.00000E+00  9.000E+00
      21     1     1     2   502   511  2.778224080E+01 -3.236063906E+01 -2.447329097E+02  2.484215388E+02  4.672030912E-06  0.00000E+00  9.000E+00
#rwgt            1           1   3.7078350770369056E-002           8      167580           0
</event>
<event>
      5   9999  3.79277E-02  6.33953E+01 -1.00000E+00  1.33438E-01
      21    -1     0     0   502   501  0.000000000E+00  0.000000000E+00  4.538580982E+01  4.538580982E+01  0.000000000E+00  0.00000E+00  9.000E+00
      21    -1     0     0   512   502  0.000000000E+00  0.000000000E+00 -1.465020972E+03  1.465020972E+03  0.000000000E+00  0.00000E+00  9.000E+00
      25     1     1     2     0     0  9.287809635E+01  3.814859917E+01 -9.165530165E+02  9.304708961E+02  1.250000000E+02  0.00000E+00  9.000E+00
      25     1     1     2     0     0 -4.278852493E+01 -7.700738388E+01 -1.276812635E+02  1.992197282E+02  1.250000000E+02  0.00000E+00  9.000E+00
      21     1     1     2   512   501 -5.008957142E+01  3.885878471E+01 -3.754008826E+02  3.807161580E+02  0.000000000E+00  0.00000E+00  9.000E+00
#rwgt            1           1   3.9994532888488345E-002           8      167695           0
</event>
<event>
      5   9999  3.79277E-02  8.32492E+00 -1.00000E+00  2.05435E-01
      21    -1     0     0   511   501  0.000000000E+00  0.000000000E+00  2.191570435E+03  2.191570435E+03  0.000000000E+00  0.00000E+00  9.000E+00
      21    -1     0     0   501   502  0.000000000E+00  0.000000000E+00 -2.196122812E+02  2.196122812E+02  0.000000000E+00  0.00000E+00  9.000E+00
      25     1     1     2     0     0 -9.453576001E+01  6.555972988E+01  1.689144500E+02  2.395666494E+02  1.250000000E+02  0.00000E+00  9.000E+00
      25     1     1     2     0     0  9.099055969E+01 -5.802740473E+01 -1.472794391E+02  2.212751564E+02  1.250000000E+02  0.00000E+00  9.000E+00
      21     1     1     2   511   502  3.545200327E+00 -7.532325147E+00  1.950323143E+03  1.950340911E+03  2.157918644E-05  0.00000E+00  9.000E+00
#rwgt            1           1   2.7215049848993009E-002           8      167783           0
</event>
<event>
      5   9999 -3.79277E-02  3.51557E+01 -1.00000E+00  1.48405E-01
      21    -1     0     0   502   512  0.000000000E+00  0.000000000E+00  5.704667348E+01  5.704667348E+01  0.000000000E+00  0.00000E+00  9.000E+00
      21    -1     0     0   501   502  0.000000000E+00  0.000000000E+00 -8.489043249E+02  8.489043249E+02  0.000000000E+00  0.00000E+00  9.000E+00
      25     1     1     2     0     0  1.121680059E+02  1.224868770E+02 -3.018555734E+02  3.665057759E+02  1.250000000E+02  0.00000E+00  9.000E+00
      25     1     1     2     0     0 -7.842608501E+01 -1.126173568E+02 -4.462480891E+02  4.833173666E+02  1.250000000E+02  0.00000E+00  9.000E+00
      21     1     1     2   501   512 -3.374192086E+01 -9.869520291E+00 -4.375398889E+01  5.612785581E+01  8.259061849E-07  0.00000E+00  9.000E+00
#rwgt            1           1 -0.17197645012091750                8      168172           0
</event>
<event>
      5   9999  3.79277E-02  1.24111E+01 -1.00000E+00  1.85503E-01
      21    -1     0     0   502   501  0.000000000E+00  0.000000000E+00  3.571085576E+02  3.571085576E+02  0.000000000E+00  0.00000E+00  9.000E+00
      21    -1     0     0   501   511  0.000000000E+00  0.000000000E+00 -8.921387925E+02  8.921387925E+02  0.000000000E+00  0.00000E+00  9.000E+00
      25     1     1     2     0     0  6.249819300E+01  7.887875385E+01  1.213885089E+00  1.604816359E+02  1.250000000E+02  0.00000E+00  9.000E+00
      25     1     1     2     0     0 -6.498951113E+01 -6.672022029E+01  2.542179108E+02  2.982062550E+02  1.250000000E+02  0.00000E+00  9.000E+00
      21     1     1     2   502   511  2.491318138E+00 -1.215853356E+01 -7.904620307E+02  7.905594592E+02  1.078959322E-05  0.00000E+00  9.000E+00
#rwgt            1           1   4.5616613225592829E-002           8      168385           0
</event>
<event>
      5   9999  3.79277E-02  3.51619E+01 -1.00000E+00  1.48400E-01
      21    -1     0     0   502   501  0.000000000E+00  0.000000000E+00  6.265445482E+02  6.265445482E+02  0.000000000E+00  0.00000E+00  9.000E+00
      21    -1     0     0   501   512  0.000000000E+00  0.000000000E+00 -7.605567499E+01  7.605567499E+01  0.000000000E+00  0.00000E+00  9.000E+00
      25     1     1     2     0     0 -6.571738240E+01  1.221909519E+02  3.113713758E+02  3.630792431E+02  1.250000000E+02  0.00000E+00  9.000E+00
      25     1     1     2     0     0  5.043190039E+01 -1.538565454E+02  2.157551898E+02  2.973054239E+02  1.250000000E+02  0.00000E+00  9.000E+00
      21     1     1     2   502   512  1.528548201E+01  3.166559352E+01  2.336230763E+01  4.221555626E+01  9.536743164E-07  0.00000E+00  9.000E+00
#rwgt            1           1   3.0584322575375567E-002           8      168777           0
</event>
<event>
      5   9999  3.79277E-02  8.88364E+01 -1.00000E+00  1.26185E-01
      21    -1     0     0   502   511  0.000000000E+00  0.000000000E+00  2.260520038E+02  2.260520038E+02  0.000000000E+00  0.00000E+00  9.000E+00
      21    -1     0     0   501   502  0.000000000E+00  0.000000000E+00 -3.293894264E+02  3.293894264E+02  0.000000000E+00  0.00000E+00  9.000E+00
      25     1     1     2     0     0  9.141770074E+01 -3.817370461E+01  5.029695113E+01  1.672399803E+02  1.250000000E+02  0.00000E+00  9.000E+00
      25     1     1     2     0     0 -1.507936965E+02  1.042524412E+02 -1.900903207E+02  2.921757013E+02  1.250000000E+02  0.00000E+00  9.000E+00
      21     1     1     2   501   511  5.937599576E+01 -6.607873660E+01  3.645594696E+01  9.602574848E+01  2.780414531E-06  0.00000E+00  9.000E+00
#rwgt            2          11   2.3675410008240491E-003           8      169061           0
</event>
<event>
      5   9999  3.79277E-02  2.21172E+01 -1.00000E+00  1.62842E-01
      21    -1     0     0   502   501  0.000000000E+00  0.000000000E+00  9.546581509E+02  9.546581509E+02  0.000000000E+00  0.00000E+00  9.000E+00
      21    -1     0     0   512   502  0.000000000E+00  0.000000000E+00 -4.465677290E+01  4.465677290E+01  0.000000000E+00  0.00000E+00  9.000E+00
      25     1     1     2     0     0  1.298063570E+02 -7.559088259E+01  3.540603674E+02  4.044099599E+02  1.250000000E+02  0.00000E+00  9.000E+00
      25     1     1     2     0     0 -1.089648503E+02  8.299377661E+01  5.256442442E+02  5.573940948E+02  1.250000000E+02  0.00000E+00  9.000E+00
      21     1     1     2   512   501 -2.084150677E+01 -7.402894014E+00  3.029676639E+01  3.751086907E+01  5.840038640E-07  0.00000E+00  9.000E+00
#rwgt            1           1   3.2857773718579016E-002           8      169141           0
</event>
<event>
      5   9999  3.79277E-02  1.52794E+01 -1.00000E+00  1.76632E-01
      21    -1     0     0   502   511  0.000000000E+00  0.000000000E+00  7.290244351E+02  7.290244351E+02  0.000000000E+00  0.00000E+00  9.000E+00
      21    -1     0     0   501   502  0.000000000E+00  0.000000000E+00 -5.775434758E+01  5.775434758E+01  0.000000000E+00  0.00000E+00  9.000E+00
      25     1     1     2     0     0 -1.583665815E+02  1.496378113E+01  3.165804798E+02  3.757021281E+02  1.250000000E+02  0.00000E+00  9.000E+00
      25     1     1     2     0     0  1.450312873E+02 -7.505212467E+00  3.170488899E+02  3.704529675E+02  1.250000000E+02  0.00000E+00  9.000E+00
      21     1     1     2   501   511  1.333529415E+01 -7.458568665E+00  3.764071781E+01  4.062368710E+01  4.768371582E-07  0.00000E+00  9.000E+00
#rwgt            1           1   1.7567549622370261E-002           8      169257           0
</event>
<event>
      5   9999  3.79277E-02  1.99772E+01 -1.00000E+00  1.66410E-01
      21    -1     0     0   502   501  0.000000000E+00  0.000000000E+00  4.064077266E+02  4.064077266E+02  0.000000000E+00  0.00000E+00  9.000E+00
      -4    -1     0     0     0   502  0.000000000E+00  0.000000000E+00 -1.415826561E+02  1.415826561E+02  0.000000000E+00  0.00000E+00  9.000E+00
      25     1     1     2     0     0 -2.172974976E+00 -1.091948364E+01 -2.775942377E+00  1.255255464E+02  1.250000000E+02  0.00000E+00  9.000E+00
      25     1     1     2     0     0  2.090410075E+01  1.786440542E+01  3.315880584E+02  3.554317922E+02  1.250000000E+02  0.00000E+00  9.000E+00
      -4     1     1     2     0   501 -1.873112578E+01 -6.944921777E+00 -6.398704552E+01  6.703304413E+01  9.536743164E-07  0.00000E+00  9.000E+00
#rwgt            1           1   4.4477695971064900E-002           8      169476           0
</event>
<event>
      5   9999  3.79277E-02  1.80180E+01 -1.00000E+00  1.70198E-01
      21    -1     0     0   502   511  0.000000000E+00  0.000000000E+00  2.719362091E+02  2.719362091E+02  0.000000000E+00  0.00000E+00  9.000E+00
      21    -1     0     0   501   502  0.000000000E+00  0.000000000E+00 -6.613055725E+02  6.613055725E+02  0.000000000E+00  0.00000E+00  9.000E+00
      25     1     1     2     0     0 -2.455975518E+02  2.060437746E+02  3.813711936E+01  3.461959479E+02  1.250000000E+02  0.00000E+00  9.000E+00
      25     1     1     2     0     0  2.538015160E+02 -1.900018526E+02 -4.459515317E+02  5.612607969E+02  1.250000000E+02  0.00000E+00  9.000E+00
      21     1     1     2   501   511 -8.203964237E+00 -1.604192208E+01  1.844504894E+01  2.578503682E+01  0.000000000E+00  0.00000E+00  9.000E+00
#rwgt            1           1   4.2314103015238518E-002           8      169676           0
</event>
<event>
      5   9999  3.79277E-02  2.64538E+01 -1.00000E+00  1.56934E-01
       2    -1     0     0   502     0  0.000000000E+00  0.000000000E+00  3.036803778E+03  3.036803778E+03  0.000000000E+00  0.00000E+00  9.000E+00
      21    -1     0     0   501   502  0.000000000E+00  0.000000000E+00 -7.845871311E+01  7.845871311E+01  0.000000000E+00  0.00000E+00  9.000E+00
      25     1     1     2     0     0  4.191235496E+01  1.632053467E+02  2.269182134E+02  3.090461232E+02  1.250000000E+02  0.00000E+00  9.000E+00
      25     1     1     2     0     0 -6.779039185E+01 -1.686945805E+02  2.887373259E+02  3.633836018E+02  1.250000000E+02  0.00000E+00  9.000E+00
       2     1     1     2   501     0  2.587803689E+01  5.489233752E+00  2.442689525E+03  2.442832766E+03  3.051757812E-05  0.00000E+00  9.000E+00
#rwgt            1           1   6.7163274675557771E-002           8      169921           0
</event>
<event>
      5   9999  3.79277E-02  3.12187E+01 -1.00000E+00  1.51848E-01
      21    -1     0     0   502   511  0.000000000E+00  0.000000000E+00  1.277087016E+03  1.277087016E+03  0.000000000E+00  0.00000E+00  9.000E+00
      21    -1     0     0   501   502  0.000000000E+00  0.000000000E+00 -6.307908841E+01  6.307908841E+01  0.000000000E+00  0.00000E+00  9.000E+00
      25     1     1     2     0     0 -3.247999389E+01 -2.905778355E+00  2.002753829E+01  1.307267985E+02  1.250000000E+02  0.00000E+00  9.000E+00
      25     1     1     2     0     0  5.895397231E+01  1.945082416E+01  6.624316149E+02  6.769745563E+02  1.250000000E+02  0.00000E+00  9.000E+00
      21     1     1     2   501   511 -2.647397842E+01 -1.654504581E+01  5.315487746E+02  5.324647499E+02  7.629394531E-06  0.00000E+00  9.000E+00
#rwgt            1           1   4.0400511037880789E-002           8      170124           0
</event>
<event>
      5   9999  3.79277E-02  2.44738E+01 -1.00000E+00  1.59446E-01
      21    -1     0     0   502   501  0.000000000E+00  0.000000000E+00  2.919065819E+02  2.919065819E+02  0.000000000E+00  0.00000E+00  9.000E+00
      21    -1     0     0   512   502  0.000000000E+00  0.000000000E+00 -1.543530013E+02  1.543530013E+02  0.000000000E+00  0.00000E+00  9.000E+00
      25     1     1     2     0     0  1.535148364E+01 -6.523958211E+01  2.216991597E+02  2.631869840E+02  1.250000000E+02  0.00000E+00  9.000E+00
      25     1     1     2     0     0 -1.452679077E+01  4.077966479E+01 -8.715563600E+01  1.584143731E+02  1.250000000E+02  0.00000E+00  9.000E+00
      21     1     1     2   512   501 -8.246928682E-01  2.445991732E+01  3.010056805E+00  2.465822612E+01  2.308477966E-07  0.00000E+00  9.000E+00
#rwgt            1           1   4.2321936298285991E-002           8      170248           0
</event>
<event>
      5   9999  3.79277E-02  1.04087E+02 -1.00000E+00  1.23050E-01
      21    -1     0     0   502   501  0.000000000E+00  0.000000000E+00  2.823593499E+02  2.823593499E+02  0.000000000E+00  0.00000E+00  9.000E+00
      21    -1     0     0   511   502  0.000000000E+00  0.000000000E+00 -4.530293536E+02  4.530293536E+02  0.000000000E+00  0.00000E+00  9.000E+00
      25     1     1     2     0     0  7.779041763E+01  2.388087644E+02  5.098760038E+01  2.851415621E+02  1.250000000E+02  0.00000E+00  9.000E+00
      25     1     1     2     0     0  2.449454302E+01 -2.580933300E+02 -1.618166685E+02  3.301844694E+02  1.250000000E+02  0.00000E+00  9.000E+00
      21     1     1     2   511   501 -1.022849606E+02  1.928456558E+01 -5.984093563E+01  1.200626720E+02  6.743495762E-07  0.00000E+00  9.000E+00
#rwgt            2          11   3.3014145962235487E-003           8      170449           0
</event>
<event>
      5   9999  3.79277E-02  9.82207E+01 -1.00000E+00  1.24180E-01
      21    -1     0     0   502   512  0.000000000E+00  0.000000000E+00  8.559549188E+01  8.559549188E+01  0.000000000E+00  0.00000E+00  9.000E+00
      21    -1     0     0   501   502  0.000000000E+00  0.000000000E+00 -3.248987473E+03  3.248987473E+03  0.000000000E+00  0.00000E+00  9.000E+00
      25     1     1     2     0     0 -2.002754954E+02 -1.630226739E+01 -1.235139998E+03  1.257605603E+03  1.250000000E+02  0.00000E+00  9.000E+00
      25     1     1     2     0     0  2.313793098E+02 -7.686352778E+01 -1.955854193E+03  1.974951901E+03  1.250000000E+02  0.00000E+00  9.000E+00
      21     1     1     2   501   512 -3.110381437E+01  9.316579517E+01  2.760220998E+01  1.020254608E+02  3.536319011E-06  0.00000E+00  9.000E+00
#rwgt            1           1   3.4712510204066238E-002           8      170589           0
</event>
<event>
      5   9999  3.79277E-02  6.15385E+00 -1.00000E+00  2.23778E-01
      21    -1     0     0   502   511  0.000000000E+00  0.000000000E+00  1.580465795E+03  1.580465795E+03  0.000000000E+00  0.00000E+00  9.000E+00
      21    -1     0     0   501   502  0.000000000E+00  0.000000000E+00 -1.012207055E+02  1.012207055E+02  0.000000000E+00  0.00000E+00  9.000E+00
      25     1     1     2     0     0  1.650835957E+02  2.368091298E+02  4.187027738E+02  5.237061870E+02  1.250000000E+02  0.00000E+00  9.000E+00
      25     1     1     2     0     0 -1.619372224E+02 -2.315204418E+02  4.412506251E+02  5.386580484E+02  1.250000000E+02  0.00000E+00  9.000E+00
      21     1     1     2   501   511 -3.146373281E+00 -5.288688002E+00  6.192916903E+02  6.193222647E+02  7.629394531E-06  0.00000E+00  9.000E+00
#rwgt            1           1   4.0979882618767546E-002           8      170778           0
</event>
<event>
      5   9999  3.79277E-02  4.96205E+01 -1.00000E+00  1.39265E-01
      21    -1     0     0   502   501  0.000000000E+00  0.000000000E+00  1.060985411E+03  1.060985411E+03  0.000000000E+00  0.00000E+00  9.000E+00
      21    -1     0     0   512   502  0.000000000E+00  0.000000000E+00 -5.826178048E+01  5.826178048E+01  0.000000000E+00  0.00000E+00  9.000E+00
      25     1     1     2     0     0 -5.920776770E+00  1.638323289E+02  2.160910080E+02  2.986576826E+02  1.250000000E+02  0.00000E+00  9.000E+00
      25     1     1     2     0     0  1.135275650E+01 -1.145100523E+02  7.039257335E+02  7.241394033E+02  1.250000000E+02  0.00000E+00  9.000E+00
      21     1     1     2   512   501 -5.431979727E+00 -4.932227659E+01  8.270688870E+01  9.645010529E+01  9.536743164E-07  0.00000E+00  9.000E+00
#rwgt            1           1   3.6774293372513922E-002           8      171170           0
</event>
<event>
      5   9999  3.79277E-02  6.38722E+01 -1.00000E+00  1.33268E-01
      21    -1     0     0   511   501  0.000000000E+00  0.000000000E+00  1.873805303E+02  1.873805303E+02  0.000000000E+00  0.00000E+00  9.000E+00
      21    -1     0     0   501   502  0.000000000E+00  0.000000000E+00 -5.470938242E+02  5.470938242E+02  0.000000000E+00  0.00000E+00  9.000E+00
      25     1     1     2     0     0  4.386969932E+01  1.252730073E+02 -4.178058631E+02  4.558559159E+02  1.250000000E+02  0.00000E+00  9.000E+00
      25     1     1     2     0     0  2.000241594E+01 -1.251852963E+02 -1.837922364E+01  1.789811468E+02  1.250000000E+02  0.00000E+00  9.000E+00
      21     1     1     2   511   502 -6.387211526E+01 -8.771099742E-02  7.647179285E+01  9.963729172E+01  1.348699152E-06  0.00000E+00  9.000E+00
#rwgt            1           1   4.4266588640510154E-002           8      171283           0
</event>
<event>
      5   9999  3.79277E-02  5.93560E+01 -1.00000E+00  1.34954E-01
      -2    -1     0     0     0   501  0.000000000E+00  0.000000000E+00  1.480945268E+03  1.480945268E+03  0.000000000E+00  0.00000E+00  9.000E+00
      21    -1     0     0   501   502  0.000000000E+00  0.000000000E+00 -2.547658827E+02  2.547658827E+02  0.000000000E+00  0.00000E+00  9.000E+00
      25     1     1     2     0     0 -1.369860404E+02  2.103135734E+02  2.176949872E+02  3.549832135E+02  1.250000000E+02  0.00000E+00  9.000E+00
      25     1     1     2     0     0  8.201605782E+01 -1.879207893E+02 -1.075463470E+02  2.631198843E+02  1.250000000E+02  0.00000E+00  9.000E+00
      -2     1     1     2     0   502  5.496998255E+01 -2.239278409E+01  1.116030745E+03  1.117608052E+03  1.525878906E-05  0.00000E+00  9.000E+00
#rwgt            1           1   3.1589101239079320E-002           8      171404           0
</event>
<event>
      5   9999  3.79277E-02  1.06714E+02 -1.00000E+00  1.22572E-01
      21    -1     0     0   502   501  0.000000000E+00  0.000000000E+00  1.961321650E+02  1.961321650E+02  0.000000000E+00  0.00000E+00  9.000E+00
      21    -1     0     0   511   502  0.000000000E+00  0.000000000E+00 -6.827805927E+02  6.827805927E+02  0.000000000E+00  0.00000E+00  9.000E+00
      25     1     1     2     0     0  1.606019897E+02  1.241081282E+02 -2.166722703E+02  3.221299417E+02  1.250000000E+02  0.00000E+00  9.000E+00
      25     1     1     2     0     0 -1.783109352E+02 -1.887403919E+01  4.592009366E+01  2.233487720E+02  1.250000000E+02  0.00000E+00  9.000E+00
      21     1     1     2   511   501  1.770894548E+01 -1.052340891E+02 -3.158962511E+02  3.334340440E+02  3.814697266E-06  0.00000E+00  9.000E+00
#rwgt            1           1   3.8948958552908121E-002           8      171520           0
</event>
<event>
      5   9999  3.79277E-02  6.10610E+01 -1.00000E+00  1.34298E-01
      21    -1     0     0   502   512  0.000000000E+00  0.000000000E+00  3.075247891E+02  3.075247891E+02  0.000000000E+00  0.00000E+00  9.000E+00
      21    -1     0     0   501   502  0.000000000E+00  0.000000000E+00 -1.989909513E+02  1.989909513E+02  0.000000000E+00  0.00000E+00  9.000E+00
      25     1     1     2     0     0 -1.206128149E+02 -4.168187660E+01  1.476088296E+02  2.317287133E+02  1.250000000E+02  0.00000E+00  9.000E+00
      25     1     1     2     0     0  6.955266239E+01  7.516781400E+01 -9.877402979E+01  1.893913463E+02  1.250000000E+02  0.00000E+00  9.000E+00
      21     1     1     2   501   512  5.106015253E+01 -3.348593739E+01  5.969903792E+01  8.539568085E+01  1.168007728E-06  0.00000E+00  9.000E+00
#rwgt            1           1   3.9971019432556071E-002           8      171588           0
</event>
<event>
      5   9999  3.79277E-02  6.51243E+01 -1.00000E+00  1.32829E-01
       1    -1     0     0   502     0  0.000000000E+00  0.000000000E+00  4.206535667E+02  4.206535667E+02  0.000000000E+00  0.00000E+00  9.000E+00
      21    -1     0     0   501   502  0.000000000E+00  0.000000000E+00 -6.905763524E+02  6.905763524E+02  0.000000000E+00  0.00000E+00  9.000E+00
      25     1     1     2     0     0  1.924682329E+02  1.967689837E+02 -2.068338439E+02  3.662885374E+02  1.250000000E+02  0.00000E+00  9.000E+00
      25     1     1     2     0     0 -1.519363176E+02 -2.477429365E+02 -3.376851221E+02  4.627282668E+02  1.250000000E+02  0.00000E+00  9.000E+00
       1     1     1     2   501     0 -4.053191528E+01  5.097395281E+01  2.745961803E+02  2.822131149E+02  3.814697266E-06  0.00000E+00  9.000E+00
#rwgt            1           1   4.9229011424991288E-002           8      171691           0
</event>
<event>
      5   9999  3.79277E-02  4.31291E+01 -1.00000E+00  1.42840E-01
       2    -1     0     0   502     0  0.000000000E+00  0.000000000E+00  4.671830318E+02  4.671830318E+02  0.000000000E+00  0.00000E+00  9.000E+00
      21    -1     0     0   501   502  0.000000000E+00  0.000000000E+00 -5.617953211E+02  5.617953211E+02  0.000000000E+00  0.00000E+00  9.000E+00
      25     1     1     2     0     0 -4.568063663E+01 -5.020676903E+01 -4.518455699E+01  1.492450482E+02  1.250000000E+02  0.00000E+00  9.000E+00
      25     1     1     2     0     0  6.709272527E+01  1.276825257E+01 -4.524847782E+02  4.743753120E+02  1.250000000E+02  0.00000E+00  9.000E+00
       2     1     1     2   501     0 -2.141208865E+01  3.743851646E+01  4.030570459E+02  4.053579928E+02  0.000000000E+00  0.00000E+00  9.000E+00
#rwgt            1           1   4.1067348613655651E-002           8      171812           0
</event>
<event>
      5   9999  3.79277E-02  1.08269E+02 -1.00000E+00  1.22296E-01
      21    -1     0     0   502   501  0.000000000E+00  0.000000000E+00  2.630688395E+02  2.630688395E+02  0.000000000E+00  0.00000E+00  9.000E+00
      21    -1     0     0   501   511  0.000000000E+00  0.000000000E+00 -4.424330338E+02  4.424330338E+02  0.000000000E+00  0.00000E+00  9.000E+00
      25     1     1     2     0     0 -2.301627079E+02 -1.782013888E+01 -2.049926531E+01  2.633204309E+02  1.250000000E+02  0.00000E+00  9.000E+00
      25     1     1     2     0     0  1.769886256E+02 -7.649122746E+01  2.257800862E+01  2.308909872E+02  1.250000000E+02  0.00000E+00  9.000E+00
      21     1     1     2   502   511  5.317408224E+01  9.431136635E+01 -1.814429376E+02  2.112904552E+02  0.000000000E+00  0.00000E+00  9.000E+00
#rwgt            1           1   4.4003523353627519E-002           8      171925           0
</event>
<event>
      5   9999  3.79277E-02  1.60869E+02 -1.00000E+00  1.15202E-01
      21    -1     0     0   512   501  0.000000000E+00  0.000000000E+00  2.474205076E+02  2.474205076E+02  0.000000000E+00  0.00000E+00  9.000E+00
      21    -1     0     0   501   502  0.000000000E+00  0.000000000E+00 -2.793040456E+02  2.793040456E+02  0.000000000E+00  0.00000E+00  9.000E+00
      25     1     1     2     0     0  5.901774109E+01 -1.521944844E+02 -5.790504121E+01  2.135983348E+02  1.250000000E+02  0.00000E+00  9.000E+00
      25     1     1     2     0     0 -8.466674507E+01 -6.616567260E+00  9.687189310E+00  1.514301103E+02  1.250000000E+02  0.00000E+00  9.000E+00
      21     1     1     2   512   502  2.564900398E+01  1.588110516E+02  1.633431394E+01  1.616961080E+02  2.880822652E-06  0.00000E+00  9.000E+00
#rwgt            1           1   3.6075130384233565E-002           8      172095           0
</event>
<event>
      5   9999  3.79277E-02  2.33008E+01 -1.00000E+00  1.61075E-01
      21    -1     0     0   502   501  0.000000000E+00  0.000000000E+00  9.998533121E+02  9.998533121E+02  0.000000000E+00  0.00000E+00  9.000E+00
      21    -1     0     0   501   511  0.000000000E+00  0.000000000E+00 -1.622907630E+02  1.622907630E+02  0.000000000E+00  0.00000E+00  9.000E+00
      25     1     1     2     0     0  1.545810902E+02  2.584629647E+02  6.628190840E+02  7.386829872E+02  1.250000000E+02  0.00000E+00  9.000E+00
      25     1     1     2     0     0 -1.680680314E+02 -2.774637206E+02  1.894416995E+02  3.959117793E+02  1.250000000E+02  0.00000E+00  9.000E+00
      21     1     1     2   502   511  1.348694119E+01  1.900075596E+01 -1.469823440E+01  2.754930859E+01  6.529361695E-07  0.00000E+00  9.000E+00
#rwgt            1           1   3.4233313929503480E-003           8      172179           0
</event>
<event>
      5   9999 -3.79277E-02  2.52317E+01 -1.00000E+00  1.58451E-01
       1    -1     0     0   502     0  0.000000000E+00  0.000000000E+00  1.666465549E+03  1.666465549E+03  0.000000000E+00  0.00000E+00  9.000E+00
      21    -1     0     0   501   502  0.000000000E+00  0.000000000E+00 -2.816303234E+01  2.816303234E+01  0.000000000E+00  0.00000E+00  9.000E+00
      25     1     1     2     0     0  6.832728858E+01  8.461132541E+01  3.675636895E+02  4.031820440E+02  1.250000000E+02  0.00000E+00  9.000E+00
      25     1     1     2     0     0 -8.125950924E+01 -1.062768708E+02  8.285641565E+02  8.485525573E+02  1.250000000E+02  0.00000E+00  9.000E+00
       1     1     1     2   501     0  1.293222067E+01  2.166554534E+01  4.421746701E+02  4.428939795E+02  7.629394531E-06  0.00000E+00  9.000E+00
#rwgt            1           1 -0.13092365045667403                8      172380           0
</event>
<event>
      5   9999  3.79277E-02  2.66889E+01 -1.00000E+00  1.56653E-01
      21    -1     0     0   511   501  0.000000000E+00  0.000000000E+00  5.744251384E+02  5.744251384E+02  0.000000000E+00  0.00000E+00  9.000E+00
      21    -1     0     0   501   502  0.000000000E+00  0.000000000E+00 -1.299368812E+02  1.299368812E+02  0.000000000E+00  0.00000E+00  9.000E+00
      25     1     1     2     0     0  1.752684437E+02 -1.119169395E+02  1.184023929E+02  2.699788053E+02  1.250000000E+02  0.00000E+00  9.000E+00
      25     1     1     2     0     0 -1.820255069E+02  1.377363383E+02  2.978435355E+02  3.955254172E+02  1.250000000E+02  0.00000E+00  9.000E+00
      21     1     1     2   511   502  6.757063206E+00 -2.581939879E+01  2.824232878E+01  3.885779705E+01  4.768371582E-07  0.00000E+00  9.000E+00
#rwgt            1           1   4.0018898683067933E-002           8      172554           0
</event>
<event>
      5   9999  3.79277E-02  6.27395E+01 -1.00000E+00  1.33675E-01
      21    -1     0     0   502   512  0.000000000E+00  0.000000000E+00  5.529028750E+02  5.529028750E+02  0.000000000E+00  0.00000E+00  9.000E+00
      21    -1     0     0   501   502  0.000000000E+00  0.000000000E+00 -1.179439298E+02  1.179439298E+02  0.000000000E+00  0.00000E+00  9.000E+00
      25     1     1     2     0     0  3.070904956E+01  2.204258873E+01 -4.664045677E+01  1.386695844E+02  1.250000000E+02  0.00000E+00  9.000E+00
      25     1     1     2     0     0 -9.019160520E+01 -4.199418460E+01  2.975207321E+02  3.377004933E+02  1.250000000E+02  0.00000E+00  9.000E+00
      21     1     1     2   501   512  5.948255563E+01  1.995159587E+01  1.840786699E+02  1.944767270E+02  3.814697266E-06  0.00000E+00  9.000E+00
#rwgt            1           1   4.5451114008771991E-002           8      172824           0
</event>
<event>
      5   9999 -3.79277E-02  4.66568E+01 -1.00000E+00  1.40812E-01
       2    -1     0     0   502     0  0.000000000E+00  0.000000000E+00  2.556635184E+03  2.556635184E+03  0.000000000E+00  0.00000E+00  9.000E+00
      21    -1     0     0   501   502  0.000000000E+00  0.000000000E+00 -7.646329687E+02  7.646329687E+02  0.000000000E+00  0.00000E+00  9.000E+00
      25     1     1     2     0     0  6.211198079E+01 -1.832527839E+02 -4.304161469E+02  4.881828966E+02  1.250000000E+02  0.00000E+00  9.000E+00
      25     1     1     2     0     0 -1.005735018E+02  1.568412021E+02 -2.638684418E+02  3.463607173E+02  1.250000000E+02  0.00000E+00  9.000E+00
       2     1     1     2   501     0  3.846152100E+01  2.641158181E+01  2.486286804E+03  2.486724539E+03  4.315837288E-05  0.00000E+00  9.000E+00
#rwgt            1           1  -2.6892344935332817E-002           8      173007           0
</event>
<event>
      5   9999  3.79277E-02  2.42062E+01 -1.00000E+00  1.59808E-01
      21    -1     0     0   502   501  0.000000000E+00  0.000000000E+00  5.464642306E+02  5.464642306E+02  0.000000000E+00  0.00000E+00  9.000E+00
      21    -1     0     0   511   502  0.000000000E+00  0.000000000E+00 -2.783893105E+02  2.783893105E+02  0.000000000E+00  0.00000E+00  9.000E+00
      25     1     1     2     0     0  2.483855277E+02 -1.073504177E+02 -6.483922804E+01  3.050386992E+02  1.250000000E+02  0.00000E+00  9.000E+00
      25     1     1     2     0     0 -2.300040038E+02  1.231003097E+02  3.735826631E+02  4.724876021E+02  1.250000000E+02  0.00000E+00  9.000E+00
      21     1     1     2   511   501 -1.838152387E+01 -1.574989204E+01 -4.066851492E+01  4.732723977E+01  9.536743164E-07  0.00000E+00  9.000E+00
#rwgt            1           1   5.3401918103718547E-002           8      173163           0
</event>
<event>
      5   9999  3.79277E-02  4.33413E+02 -1.00000E+00  1.00648E-01
      21    -1     0     0   502   501  0.000000000E+00  0.000000000E+00  2.230698799E+02  2.230698799E+02  0.000000000E+00  0.00000E+00  9.000E+00
       2    -1     0     0   501     0  0.000000000E+00  0.000000000E+00 -4.497881813E+03  4.497881813E+03  0.000000000E+00  0.00000E+00  9.000E+00
      25     1     1     2     0     0 -2.827424347E+01 -6.280123703E+02 -4.835502906E+02  8.028977853E+02  1.250000000E+02  0.00000E+00  9.000E+00
      25     1     1     2     0     0 -2.712559508E+02  3.147572473E+02 -9.560855537E+02  1.049941190E+03  1.250000000E+02  0.00000E+00  9.000E+00
       2     1     1     2   502     0  2.995301942E+02  3.132551229E+02 -2.835176089E+03  2.868112718E+03  6.103515625E-05  0.00000E+00  9.000E+00
#rwgt            2          13   9.3526892079769412E-004           8      173384           0
</event>
<event>
      5   9999  3.79277E-02  7.47309E+01 -1.00000E+00  1.29798E-01
      21    -1     0     0   502   501  0.000000000E+00  0.000000000E+00  1.388106536E+02  1.388106536E+02  0.000000000E+00  0.00000E+00  9.000E+00
      21    -1     0     0   501   511  0.000000000E+00  0.000000000E+00 -3.853808169E+02  3.853808169E+02  0.000000000E+00  0.00000E+00  9.000E+00
      25     1     1     2     0     0  1.385013763E+02 -1.202383085E+01  8.067326828E+00  1.871290611E+02  1.250000000E+02  0.00000E+00  9.000E+00
      25     1     1     2     0     0 -7.044344780E+01 -1.884404959E+01 -1.853515811E+02  2.351543879E+02  1.250000000E+02  0.00000E+00  9.000E+00
      21     1     1     2   502   511 -6.805792847E+01  3.086788044E+01 -6.928590899E+01  1.019080215E+02  9.536743164E-07  0.00000E+00  9.000E+00
#rwgt            1           1   4.1187584269191287E-002           8      173568           0
</event>
<event>
      5   9999  3.79277E-02  6.60462E+01 -1.00000E+00  1.32512E-01
      21    -1     0     0   502   512  0.000000000E+00  0.000000000E+00  4.949619285E+02  4.949619285E+02  0.000000000E+00  0.00000E+00  9.000E+00
      21    -1     0     0   501   502  0.000000000E+00  0.000000000E+00 -1.760727026E+02  1.760727026E+02  0.000000000E+00  0.00000E+00  9.000E+00
      25     1     1     2     0     0  3.517812331E+01  4.026852620E+01  2.073224463E+02  2.479246887E+02  1.250000000E+02  0.00000E+00  9.000E+00
      25     1     1     2     0     0  4.338936247E+00 -9.318833826E+01 -1.106822570E+02  1.912549471E+02  1.250000000E+02  0.00000E+00  9.000E+00
      21     1     1     2   501   512 -3.951705955E+01  5.291981206E+01  2.222490367E+02  2.318549953E+02  2.697398305E-06  0.00000E+00  9.000E+00
#rwgt            1           1   3.9603068185936598E-002           8      173660           0
</event>
<event>
      5   9999  3.79277E-02  4.70523E+01 -1.00000E+00  1.40598E-01
      21    -1     0     0   502   501  0.000000000E+00  0.000000000E+00  9.770991250E+01  9.770991250E+01  0.000000000E+00  0.00000E+00  9.000E+00
       2    -1     0     0   501     0  0.000000000E+00  0.000000000E+00 -3.918186740E+02  3.918186740E+02  0.000000000E+00  0.00000E+00  9.000E+00
      25     1     1     2     0     0 -4.326234885E+00 -1.274362379E+02 -1.645180658E+02  2.427960152E+02  1.250000000E+02  0.00000E+00  9.000E+00
      25     1     1     2     0     0  3.465279310E+01  9.146104790E+01 -1.193381667E+02  1.985762760E+02  1.250000000E+02  0.00000E+00  9.000E+00
       2     1     1     2   502     0 -3.032655821E+01  3.597518996E+01 -1.025252899E+01  4.815629530E+01  8.259061849E-07  0.00000E+00  9.000E+00
#rwgt            1           1   4.1771709127298037E-002           8      173820           0
</event>
<event>
      5   9999  3.79277E-02  2.53831E+01 -1.00000E+00  1.58258E-01
      21    -1     0     0   511   501  0.000000000E+00  0.000000000E+00  4.122736831E+02  4.122736831E+02  0.000000000E+00  0.00000E+00  9.000E+00
      21    -1     0     0   501   502  0.000000000E+00  0.000000000E+00 -1.147129098E+02  1.147129098E+02  0.000000000E+00  0.00000E+00  9.000E+00
      25     1     1     2     0     0 -8.747382358E+00 -1.491211813E+02  1.295343034E+02  2.339183173E+02  1.250000000E+02  0.00000E+00  9.000E+00
      25     1     1     2     0     0  5.480567350E+00  1.742932312E+02  1.466542825E+02  2.598858319E+02  1.250000000E+02  0.00000E+00  9.000E+00
      21     1     1     2   511   502  3.266815007E+00 -2.517204985E+01  2.137218743E+01  3.318244370E+01  7.152557373E-07  0.00000E+00  9.000E+00
#rwgt            1           1   4.2603554764403577E-002           8      174065           0
</event>
<event>
      5   9999  3.79277E-02  4.47011E+01 -1.00000E+00  1.41909E-01
      21    -1     0     0   502   501  0.000000000E+00  0.000000000E+00  3.860573697E+02  3.860573697E+02  0.000000000E+00  0.00000E+00  9.000E+00
      21    -1     0     0   512   502  0.000000000E+00  0.000000000E+00 -1.518098388E+02  1.518098388E+02  0.000000000E+00  0.00000E+00  9.000E+00
      25     1     1     2     0     0 -6.824877816E+00  6.865427454E+01  3.156310009E+02  3.464215887E+02  1.250000000E+02  0.00000E+00  9.000E+00
      25     1     1     2     0     0 -1.067364917E+00 -2.465539599E+01 -6.975108936E+01  1.452557823E+02  1.250000000E+02  0.00000E+00  9.000E+00
      21     1     1     2   512   501  7.892242732E+00 -4.399887855E+01 -1.163238061E+01  4.618983749E+01  5.057621821E-07  0.00000E+00  9.000E+00
#rwgt            1           1   4.4434780391973489E-002           8      174315           0
</event>
<event>
      5   9999 -3.79277E-02  1.87978E+01 -1.00000E+00  1.68622E-01
      21    -1     0     0   502   501  0.000000000E+00  0.000000000E+00  2.070430654E+02  2.070430654E+02  0.000000000E+00  0.00000E+00  9.000E+00
      21    -1     0     0   511   502  0.000000000E+00  0.000000000E+00 -3.094706209E+02  3.094706209E+02  0.000000000E+00  0.00000E+00  9.000E+00
      25     1     1     2     0     0 -7.506912054E+01 -1.362140237E+02 -4.026339898E+01  2.035577913E+02  1.250000000E+02  0.00000E+00  9.000E+00
      25     1     1     2     0     0  8.993466088E+01  1.477192904E+02  3.302540800E+01  2.159280194E+02  1.250000000E+02  0.00000E+00  9.000E+00
      21     1     1     2   511   501 -1.486554034E+01 -1.150526676E+01 -9.518956449E+01  9.702787558E+01  1.907348633E-06  0.00000E+00  9.000E+00
#rwgt            1           1 -0.20755229211889509                8      174444           0
</event>
<event>
      5   9999  3.79277E-02  9.23047E+01 -1.00000E+00  1.25413E-01
      21    -1     0     0   512   501  0.000000000E+00  0.000000000E+00  1.507166782E+02  1.507166782E+02  0.000000000E+00  0.00000E+00  9.000E+00
      21    -1     0     0   501   502  0.000000000E+00  0.000000000E+00 -3.067778159E+02  3.067778159E+02  0.000000000E+00  0.00000E+00  9.000E+00
      25     1     1     2     0     0 -1.359489148E+02  4.822372284E+01 -4.991723127E+01  1.972925870E+02  1.250000000E+02  0.00000E+00  9.000E+00
      25     1     1     2     0     0  6.566529467E+01  1.161251618E+01 -8.596938175E+01  1.657181826E+02  1.250000000E+02  0.00000E+00  9.000E+00
      21     1     1     2   512   502  7.028362017E+01 -5.983623902E+01 -2.017452466E+01  9.448372458E+01  1.488923549E-06  0.00000E+00  9.000E+00
#rwgt            1           1   3.2630123188049649E-002           8      174692           0
</event>
<event>
      5   9999  3.79277E-02  3.65423E+00 -1.00000E+00  2.73079E-01
      21    -1     0     0   511   501  0.000000000E+00  0.000000000E+00  2.163036452E+02  2.163036452E+02  0.000000000E+00  0.00000E+00  9.000E+00
      21    -1     0     0   501   502  0.000000000E+00  0.000000000E+00 -1.724225028E+02  1.724225028E+02  0.000000000E+00  0.00000E+00  9.000E+00
      25     1     1     2     0     0 -4.731839648E+01  1.248231557E+01 -1.150971997E+02  1.768253495E+02  1.250000000E+02  0.00000E+00  9.000E+00
      25     1     1     2     0     0  5.008193029E+01 -1.487318525E+01  1.579740941E+02  2.081110900E+02  1.250000000E+02  0.00000E+00  9.000E+00
      21     1     1     2   511   502 -2.763533805E+00  2.390869677E+00  1.004248041E+00  3.789708568E+00  4.942156062E-08  0.00000E+00  9.000E+00
#rwgt            1           1   5.0850159401231533E-002           8      174781           0
</event>
<event>
      5   9999  3.79277E-02  6.87200E+01 -1.00000E+00  1.31628E-01
      21    -1     0     0   512   501  0.000000000E+00  0.000000000E+00  7.459692828E+02  7.459692828E+02  0.000000000E+00  0.00000E+00  9.000E+00
      21    -1     0     0   501   502  0.000000000E+00  0.000000000E+00 -1.851809400E+02  1.851809400E+02  0.000000000E+00  0.00000E+00  9.000E+00
      25     1     1     2     0     0 -3.598615802E+01  1.215440556E+02  2.796833645E+02  3.315354361E+02  1.250000000E+02  0.00000E+00  9.000E+00
      25     1     1     2     0     0 -3.016226789E+01 -1.029210217E+02 -1.128853739E+02  1.996762549E+02  1.250000000E+02  0.00000E+00  9.000E+00
      21     1     1     2   512   502  6.614842591E+01 -1.862303387E+01  3.939903522E+02  3.999385319E+02  5.394796609E-06  0.00000E+00  9.000E+00
#rwgt            1           1   4.2473851211550895E-002           8      175205           0
</event>
<event>
      5   9999  3.79277E-02  5.91821E+01 -1.00000E+00  1.35023E-01
      21    -1     0     0   511   501  0.000000000E+00  0.000000000E+00  1.280182213E+03  1.280182213E+03  0.000000000E+00  0.00000E+00  9.000E+00
      21    -1     0     0   501   502  0.000000000E+00  0.000000000E+00 -9.848563780E+01  9.848563780E+01  0.000000000E+00  0.00000E+00  9.000E+00
      25     1     1     2     0     0 -1.950073364E+02  1.484224089E+02  8.013891594E+02  8.472937256E+02  1.250000000E+02  0.00000E+00  9.000E+00
      25     1     1     2     0     0  2.323640193E+02 -1.025203687E+02  2.140239289E+02  3.548728020E+02  1.250000000E+02  0.00000E+00  9.000E+00
      21     1     1     2   511   502 -3.735668296E+01 -4.590204017E+01  1.662834873E+02  1.765013235E+02  0.000000000E+00  0.00000E+00  9.000E+00
#rwgt            1           1   2.6163594011449156E-002           8      175351           0
</event>
<event>
      5   9999  3.79277E-02  1.58559E+02 -1.00000E+00  1.15446E-01
      21    -1     0     0   512   501  0.000000000E+00  0.000000000E+00  3.503573676E+02  3.503573676E+02  0.000000000E+00  0.00000E+00  9.000E+00
      21    -1     0     0   501   502  0.000000000E+00  0.000000000E+00 -4.071059537E+02  4.071059537E+02  0.000000000E+00  0.00000E+00  9.000E+00
      25     1     1     2     0     0  3.467845895E+01  2.526221623E+02 -9.923043406E+01  3.008192671E+02  1.250000000E+02  0.00000E+00  9.000E+00
      25     1     1     2     0     0  3.594883650E+01 -1.106620163E+02 -1.357036037E+02  2.181258095E+02  1.250000000E+02  0.00000E+00  9.000E+00
      21     1     1     2   512   502 -7.062729545E+01 -1.419601460E+02  1.781854516E+02  2.385182447E+02  1.907348633E-06  0.00000E+00  9.000E+00
#rwgt            1           1   3.2593343988346984E-002           8      175457           0
</event>
<event>
      5   9999  3.79277E-02  5.76312E+01 -1.00000E+00  1.35645E-01
      21    -1     0     0   502   511  0.000000000E+00  0.000000000E+00  3.874681484E+02  3.874681484E+02  0.000000000E+00  0.00000E+00  9.000E+00
      21    -1     0     0   501   502  0.000000000E+00  0.000000000E+00 -6.004834202E+02  6.004834202E+02  0.000000000E+00  0.00000E+00  9.000E+00
      25     1     1     2     0     0  1.165152110E+02  2.165298455E+01 -2.007268133E+02  2.645012281E+02  1.250000000E+02  0.00000E+00  9.000E+00
      25     1     1     2     0     0 -1.700032598E+02 -1.965498989E-01 -3.348443462E+02  3.957864110E+02  1.250000000E+02  0.00000E+00  9.000E+00
      21     1     1     2   501   511  5.348804878E+01 -2.145643465E+01  3.225558877E+02  3.276639294E+02  7.629394531E-06  0.00000E+00  9.000E+00
#rwgt            1           1   3.8025219584518870E-002           8      175513           0
</event>
<event>
      5   9999  3.79277E-02  7.21669E+01 -1.00000E+00  1.30554E-01
      21    -1     0     0   502   501  0.000000000E+00  0.000000000E+00  6.017788905E+01  6.017788905E+01  0.000000000E+00  0.00000E+00  9.000E+00
      21    -1     0     0   501   512  0.000000000E+00  0.000000000E+00 -1.025725474E+03  1.025725474E+03  0.000000000E+00  0.00000E+00  9.000E+00
      25     1     1     2     0     0  6.177459928E+01 -1.450236532E+02 -1.989083285E+02  2.829089681E+02  1.250000000E+02  0.00000E+00  9.000E+00
      25     1     1     2     0     0 -1.189662398E+01  9.286757968E+01 -4.017738901E+02  4.310605245E+02  1.250000000E+02  0.00000E+00  9.000E+00
      21     1     1     2   502   512 -4.987797530E+01  5.215607347E+01 -3.648653664E+02  3.719338705E+02  0.000000000E+00  0.00000E+00  9.000E+00
#rwgt            1           1   7.9010907099253999E-002           8      175631           0
</event>
<event>
      5   9999  3.79277E-02  3.39658E+01 -1.00000E+00  1.49387E-01
      21    -1     0     0   502   501  0.000000000E+00  0.000000000E+00  5.378991420E+02  5.378991420E+02  0.000000000E+00  0.00000E+00  9.000E+00
      21    -1     0     0   501   511  0.000000000E+00  0.000000000E+00 -1.831783881E+02  1.831783881E+02  0.000000000E+00  0.00000E+00  9.000E+00
      25     1     1     2     0     0 -1.239005534E+02 -1.761896453E+02  3.792466083E+02  4.537037890E+02  1.250000000E+02  0.00000E+00  9.000E+00
      25     1     1     2     0     0  9.351072029E+01  1.610194135E+02 -4.352786980E+01  2.284538942E+02  1.250000000E+02  0.00000E+00  9.000E+00
      21     1     1     2   502   511  3.038983309E+01  1.517023176E+01  1.900201544E+01  3.891984684E+01  6.307962682E-07  0.00000E+00  9.000E+00
#rwgt            1           1   4.4682556769884321E-002           8      175812           0
</event>
<event>
      5   9999  3.79277E-02  4.79090E+01 -1.00000E+00  1.40142E-01
      21    -1     0     0   502   501  0.000000000E+00  0.000000000E+00  9.346227427E+02  9.346227427E+02  0.000000000E+00  0.00000E+00  9.000E+00
      21    -1     0     0   501   512  0.000000000E+00  0.000000000E+00 -4.023998997E+02  4.023998997E+02  0.000000000E+00  0.00000E+00  9.000E+00
      25     1     1     2     0     0 -3.254557387E+01 -6.347099538E+01  1.264179386E+01  1.444735152E+02  1.250000000E+02  0.00000E+00  9.000E+00
      25     1     1     2     0     0  8.044201286E+01  6.456698250E+01  8.466340078E+02  8.620057748E+02  1.250000000E+02  0.00000E+00  9.000E+00
      21     1     1     2   502   512 -4.789643899E+01 -1.095987117E+00 -3.270529587E+02  3.305433524E+02  3.814697266E-06  0.00000E+00  9.000E+00
#rwgt            1           1   3.5990644171685189E-002           8      175924           0
</event>
<event>
      5   9999  3.79277E-02  1.07014E+02 -1.00000E+00  1.22518E-01
      21    -1     0     0   502   501  0.000000000E+00  0.000000000E+00  2.790817534E+02  2.790817534E+02  0.000000000E+00  0.00000E+00  9.000E+00
      21    -1     0     0   501   511  0.000000000E+00  0.000000000E+00 -6.799634118E+02  6.799634118E+02  0.000000000E+00  0.00000E+00  9.000E+00
      25     1     1     2     0     0 -9.209424535E+01 -1.622055316E+02 -2.053302802E+02  3.042655230E+02  1.250000000E+02  0.00000E+00  9.000E+00
      25     1     1     2     0     0 -4.653067225E-01  2.159145682E+02  1.513097034E+02  2.917857838E+02  1.250000000E+02  0.00000E+00  9.000E+00
      21     1     1     2   502   511  9.255955207E+01 -5.370903661E+01 -3.468610816E+02  3.629938584E+02  3.814697266E-06  0.00000E+00  9.000E+00
#rwgt            1           1   3.1012386947382758E-002           8      176042           0
</event>
<event>
      5   9999  3.79277E-02  7.32327E+01 -1.00000E+00  1.30235E-01
      21    -1     0     0   502   512  0.000000000E+00  0.000000000E+00  7.840966327E+01  7.840966327E+01  0.000000000E+00  0.00000E+00  9.000E+00
      21    -1     0     0   501   502  0.000000000E+00  0.000000000E+00 -1.064007233E+03  1.064007233E+03  0.000000000E+00  0.00000E+00  9.000E+00
      25     1     1     2     0     0 -3.280901266E+01 -8.095235598E+01 -9.475338498E+01  1.795352868E+02  1.250000000E+02  0.00000E+00  9.000E+00
      25     1     1     2     0     0  9.513850628E+01  1.193980293E+02 -8.618006454E+02  8.840998683E+02  1.250000000E+02  0.00000E+00  9.000E+00
      21     1     1     2   501   512 -6.232949362E+01 -3.844567327E+01 -2.904353949E+01  7.878174125E+01  6.743495762E-07  0.00000E+00  9.000E+00
#rwgt            1           1   7.7536904680708604E-002           8      176136           0
</event>
<event>
      5   9999  3.79277E-02  3.54220E+01 -1.00000E+00  1.48192E-01
      21    -1     0     0   511   501  0.000000000E+00  0.000000000E+00  2.852295525E+02  2.852295525E+02  0.000000000E+00  0.00000E+00  9.000E+00
      21    -1     0     0   501   502  0.000000000E+00  0.000000000E+00 -2.356682961E+02  2.356682961E+02  0.000000000E+00  0.00000E+00  9.000E+00
      25     1     1     2     0     0 -1.476226657E+02 -3.541611461E+01 -1.123478447E+02  2.264813255E+02  1.250000000E+02  0.00000E+00  9.000E+00
      25     1     1     2     0     0  1.540310379E+02  7.025363971E+01  1.368295386E+02  2.510148544E+02  1.250000000E+02  0.00000E+00  9.000E+00
      21     1     1     2   511   502 -6.408372155E+00 -3.483752510E+01  2.507956240E+01  4.340166862E+01  4.768371582E-07  0.00000E+00  9.000E+00
#rwgt            1           1   4.0079318275041180E-002           8      176216           0
</event>
<event>
      5   9999  3.79277E-02  7.66034E+01 -1.00000E+00  1.29268E-01
      21    -1     0     0   502   512  0.000000000E+00  0.000000000E+00  1.488409184E+03  1.488409184E+03  0.000000000E+00  0.00000E+00  9.000E+00
      21    -1     0     0   501   502  0.000000000E+00  0.000000000E+00 -6.421200978E+01  6.421200978E+01  0.000000000E+00  0.00000E+00  9.000E+00
      25     1     1     2     0     0 -1.250065765E+02 -1.360677622E+02  4.020080056E+02  4.597570192E+02  1.250000000E+02  0.00000E+00  9.000E+00
      25     1     1     2     0     0  1.659304740E+02  7.131197738E+01  3.297768158E+02  3.962272941E+02  1.250000000E+02  0.00000E+00  9.000E+00
      21     1     1     2   501   512 -4.092389753E+01  6.475578480E+01  6.924123532E+02  6.966368810E+02  1.321449896E-05  0.00000E+00  9.000E+00
#rwgt            1           1   4.7068206644237082E-002           8      176420           0
</event>
<event>
      5   9999  3.79277E-02  5.65647E+01 -1.00000E+00  1.36086E-01
       1    -1     0     0   502     0  0.000000000E+00  0.000000000E+00  9.284446949E+02  9.284446949E+02  0.000000000E+00  0.00000E+00  9.000E+00
      21    -1     0     0   501   502  0.000000000E+00  0.000000000E+00 -8.046098521E+01  8.046098521E+01  0.000000000E+00  0.00000E+00  9.000E+00
      25     1     1     2     0     0  2.072581301E+01 -1.178211640E+01  6.052067267E+02  6.184404253E+02  1.250000000E+02  0.00000E+00  9.000E+00
      25     1     1     2     0     0 -7.703359262E+01  6.396700107E+00  6.071500853E+00  1.470950553E+02  1.250000000E+02  0.00000E+00  9.000E+00
       1     1     1     2   501     0  5.630777961E+01  5.385416293E+00  2.367054822E+02  2.433701996E+02  4.672030912E-06  0.00000E+00  9.000E+00
#rwgt            2          17   7.3361363654021478E-005           8      176798           0
</event>
<event>
      5   9999  3.79277E-02  6.42615E+01 -1.00000E+00  1.33130E-01
      21    -1     0     0   502   511  0.000000000E+00  0.000000000E+00  6.838164439E+02  6.838164439E+02  0.000000000E+00  0.00000E+00  9.000E+00
      21    -1     0     0   501   502  0.000000000E+00  0.000000000E+00 -1.104173446E+02  1.104173446E+02  0.000000000E+00  0.00000E+00  9.000E+00
      25     1     1     2     0     0 -1.316374431E+02 -7.612539715E+01  3.693200933E+02  4.185042698E+02  1.250000000E+02  0.00000E+00  9.000E+00
      25     1     1     2     0     0  1.559463152E+02  1.663915077E+01  4.695941088E+01  2.059764570E+02  1.250000000E+02  0.00000E+00  9.000E+00
      21     1     1     2   501   511 -2.430887207E+01  5.948624637E+01  1.571195951E+02  1.697530617E+02  0.000000000E+00  0.00000E+00  9.000E+00
#rwgt            1           1   2.8416895305381742E-002           8      177027           0
</event>
<event>
      5   9999  3.79277E-02  4.10470E+01 -1.00000E+00  1.44148E-01
      21    -1     0     0   502   501  0.000000000E+00  0.000000000E+00  3.533532320E+02  3.533532320E+02  0.000000000E+00  0.00000E+00  9.000E+00
      21    -1     0     0   512   502  0.000000000E+00  0.000000000E+00 -1.804238213E+02  1.804238213E+02  0.000000000E+00  0.00000E+00  9.000E+00
      25     1     1     2     0     0  1.229620464E+02 -1.403973715E+02  1.876697693E+02  2.927046790E+02  1.250000000E+02  0.00000E+00  9.000E+00
      25     1     1     2     0     0 -8.318435991E+01  1.302685591E+02 -4.808033031E+00  1.988407715E+02  1.250000000E+02  0.00000E+00  9.000E+00
      21     1     1     2   512   501 -3.977768649E+01  1.012881237E+01 -9.932325548E+00  4.223160278E+01  2.384185791E-07  0.00000E+00  9.000E+00
#rwgt            1           1   3.5316578962172100E-002           8      177120           0
</event>
<event>
      5   9999  3.79277E-02  6.38891E+01 -1.00000E+00  1.33262E-01
      21    -1     0     0   511   501  0.000000000E+00  0.000000000E+00  1.410173286E+03  1.410173286E+03  0.000000000E+00  0.00000E+00  9.000E+00
      21    -1     0     0   501   502  0.000000000E+00  0.000000000E+00 -9.375030532E+01  9.375030532E+01  0.000000000E+00  0.00000E+00  9.000E+00
      25     1     1     2     0     0 -1.202961294E+02 -3.674589590E+01  5.807804430E+02  6.072498190E+02  1.250000000E+02  0.00000E+00  9.000E+00
      25     1     1     2     0     0  8.451519496E+01 -1.618371094E+01 -6.395694341E+00  1.518902090E+02  1.250000000E+02  0.00000E+00  9.000E+00
      21     1     1     2   511   502  3.578093440E+01  5.292960684E+01  7.420382323E+02  7.447835637E+02  1.868812365E-05  0.00000E+00  9.000E+00
#rwgt            1           1   2.8640602030881025E-002           8      177226           0
</event>
<event>
      5   9999  3.79277E-02  3.57433E+01 -1.00000E+00  1.47937E-01
      21    -1     0     0   502   512  0.000000000E+00  0.000000000E+00  9.919384988E+01  9.919384988E+01  0.000000000E+00  0.00000E+00  9.000E+00
      21    -1     0     0   501   502  0.000000000E+00  0.000000000E+00 -8.730661947E+02  8.730661947E+02  0.000000000E+00  0.00000E+00  9.000E+00
      25     1     1     2     0     0  9.714567523E+01 -2.057897147E+02 -2.683335060E+02  3.733825911E+02  1.250000000E+02  0.00000E+00  9.000E+00
      25     1     1     2     0     0 -1.098804928E+02  1.723919556E+02 -5.093822796E+02  5.629280734E+02  1.250000000E+02  0.00000E+00  9.000E+00
      21     1     1     2   501   512  1.273481760E+01  3.339775909E+01  3.843440803E+00  3.594938009E+01  1.931411236E-07  0.00000E+00  9.000E+00
#rwgt            1           1   4.5723444607527829E-002           8      177440           0
</event>
<event>
      5   9999  3.79277E-02  1.15369E+01 -1.00000E+00  1.88843E-01
      21    -1     0     0   502   501  0.000000000E+00  0.000000000E+00  9.244512580E+02  9.244512580E+02  0.000000000E+00  0.00000E+00  9.000E+00
      21    -1     0     0   511   502  0.000000000E+00  0.000000000E+00 -7.342193206E+01  7.342193206E+01  0.000000000E+00  0.00000E+00  9.000E+00
      25     1     1     2     0     0 -1.013937778E+02  1.168078055E+02  7.287188455E+02  7.553680675E+02  1.250000000E+02  0.00000E+00  9.000E+00
      25     1     1     2     0     0  9.814738138E+01 -1.057370776E+02  1.278093441E+02  2.297247625E+02  1.250000000E+02  0.00000E+00  9.000E+00
      21     1     1     2   511   501  3.246396422E+00 -1.107072786E+01 -5.498863582E+00  1.278036016E+01  2.064765462E-07  0.00000E+00  9.000E+00
#rwgt            1           1   4.4861731413967390E-002           8      177615           0
</event>
<event>
      5   9999  3.79277E-02  5.91954E+01 -1.00000E+00  1.35017E-01
      21    -1     0     0   502   512  0.000000000E+00  0.000000000E+00  4.281902602E+02  4.281902602E+02  0.000000000E+00  0.00000E+00  9.000E+00
      21    -1     0     0   501   502  0.000000000E+00  0.000000000E+00 -1.291943940E+02  1.291943940E+02  0.000000000E+00  0.00000E+00  9.000E+00
      25     1     1     2     0     0  1.635737477E+02  8.534286735E+01  9.170656567E+01  2.409872821E+02  1.250000000E+02  0.00000E+00  9.000E+00
      25     1     1     2     0     0 -1.056561385E+02 -7.310979212E+01  1.460230070E+02  2.312054928E+02  1.250000000E+02  0.00000E+00  9.000E+00
      21     1     1     2   501   512 -5.791760918E+01 -1.223307523E+01  6.126629349E+01  8.519187931E+01  1.168007728E-06  0.00000E+00  9.000E+00
#rwgt            1           1   3.8510806988116153E-002           8      177996           0
</event>
<event>
      5   9999  3.79277E-02  8.16579E+01 -1.00000E+00  1.27920E-01
      21    -1     0     0   502   501  0.000000000E+00  0.000000000E+00  7.861538809E+02  7.861538809E+02  0.000000000E+00  0.00000E+00  9.000E+00
      21    -1     0     0   501   511  0.000000000E+00  0.000000000E+00 -7.650740780E+01  7.650740780E+01  0.000000000E+00  0.00000E+00  9.000E+00
      25     1     1     2     0     0 -7.598245404E+01  1.003806161E+01  4.515481800E+02  4.747576801E+02  1.250000000E+02  0.00000E+00  9.000E+00
      25     1     1     2     0     0  1.489603437E+02 -4.667474961E+01  2.214953211E+02  2.984173143E+02  1.250000000E+02  0.00000E+00  9.000E+00
      21     1     1     2   502   511 -7.297788965E+01  3.663668800E+01  3.660297201E+01  8.948629418E+01  4.768371582E-07  0.00000E+00  9.000E+00
#rwgt            2          11   2.3681492698693464E-003           8      178095           0
</event>
<event>
      5   9999  3.79277E-02  3.12742E+01 -1.00000E+00  1.51796E-01
      21    -1     0     0   502   501  0.000000000E+00  0.000000000E+00  2.941885755E+02  2.941885755E+02  0.000000000E+00  0.00000E+00  9.000E+00
      21    -1     0     0   501   512  0.000000000E+00  0.000000000E+00 -2.968758926E+02  2.968758926E+02  0.000000000E+00  0.00000E+00  9.000E+00
      25     1     1     2     0     0  1.365002795E+02 -5.013829869E+01  4.894316810E+01  1.979055557E+02  1.250000000E+02  0.00000E+00  9.000E+00
      25     1     1     2     0     0 -1.173173573E+02  2.543825989E+01  1.250624204E+02  2.137196210E+02  1.250000000E+02  0.00000E+00  9.000E+00
      21     1     1     2   502   512 -1.918292214E+01  2.470003880E+01 -1.766929055E+02  1.794392914E+02  2.697398305E-06  0.00000E+00  9.000E+00
#rwgt            1           1   4.7987445032977222E-002           8      178145           0
</event>
<event>
      5   9999  3.79277E-02  1.27530E+02 -1.00000E+00  1.19257E-01
      21    -1     0     0   502   501  0.000000000E+00  0.000000000E+00  3.383650934E+03  3.383650934E+03  0.000000000E+00  0.00000E+00  9.000E+00
      21    -1     0     0   501   511  0.000000000E+00  0.000000000E+00 -2.677394961E+01  2.677394961E+01  0.000000000E+00  0.00000E+00  9.000E+00
      25     1     1     2     0     0 -1.064363114E+02 -5.815838135E+01  6.198167689E+02  6.438236659E+02  1.250000000E+02  0.00000E+00  9.000E+00
      25     1     1     2     0     0  2.338428519E+02  5.254758301E+01  2.057191987E+03  2.074875321E+03  1.250000000E+02  0.00000E+00  9.000E+00
      21     1     1     2   502   511 -1.274065405E+02  5.610798343E+00  6.798682283E+02  6.917258962E+02  1.321449896E-05  0.00000E+00  9.000E+00
#rwgt            1           1   6.2500057400908610E-002           8      178395           0
</event>
<event>
      5   9999  3.79277E-02  1.24304E+02 -1.00000E+00  1.19722E-01
       1    -1     0     0   502     0  0.000000000E+00  0.000000000E+00  9.675932892E+02  9.675932892E+02  0.000000000E+00  0.00000E+00  9.000E+00
      21    -1     0     0   501   502  0.000000000E+00  0.000000000E+00 -3.263152112E+02  3.263152112E+02  0.000000000E+00  0.00000E+00  9.000E+00
      25     1     1     2     0     0  1.098838767E+02  2.328091941E+02 -3.907398585E+01  2.888362228E+02  1.250000000E+02  0.00000E+00  9.000E+00
      25     1     1     2     0     0  1.141270591E+01 -2.056329700E+02 -6.491676580E+01  2.495082257E+02  1.250000000E+02  0.00000E+00  9.000E+00
       1     1     1     2   501     0 -1.212965826E+02 -2.717622412E+01  7.452688297E+02  7.555640520E+02  0.000000000E+00  0.00000E+00  9.000E+00
#rwgt            1           1   2.5819941289296936E-002           8      178537           0
</event>
<event>
      5   9999  3.79277E-02  2.52439E+01 -1.00000E+00  1.58436E-01
      21    -1     0     0   502   501  0.000000000E+00  0.000000000E+00  3.201392637E+01  3.201392637E+01  0.000000000E+00  0.00000E+00  9.000E+00
      21    -1     0     0   501   511  0.000000000E+00  0.000000000E+00 -1.545865143E+03  1.545865143E+03  0.000000000E+00  0.00000E+00  9.000E+00
      25     1     1     2     0     0  5.242197890E+01 -1.535606527E+02 -5.258413688E+02  5.643253344E+02  1.250000000E+02  0.00000E+00  9.000E+00
      25     1     1     2     0     0 -7.315436346E+01  1.391584080E+02 -8.816861348E+02  9.042743299E+02  1.250000000E+02  0.00000E+00  9.000E+00
      21     1     1     2   502   511  2.073238457E+01  1.440224462E+01 -1.063237132E+02  1.092794053E+02  1.348699152E-06  0.00000E+00  9.000E+00
#rwgt            1           1   4.4565556103916805E-002           8      178713           0
</event>
<event>
      5   9999  3.79277E-02  2.65376E+01 -1.00000E+00  1.56833E-01
      21    -1     0     0   502   501  0.000000000E+00  0.000000000E+00  6.897687645E+01  6.897687645E+01  0.000000000E+00  0.00000E+00  9.000E+00
      21    -1     0     0   512   502  0.000000000E+00  0.000000000E+00 -7.293793189E+02  7.293793189E+02  0.000000000E+00  0.00000E+00  9.000E+00
      25     1     1     2     0     0 -2.857631488E+01  2.318193587E+01 -5.889343274E+02  6.031771298E+02  1.250000000E+02  0.00000E+00  9.000E+00
      25     1     1     2     0     0  4.483941642E+01 -2.211584497E+00 -1.611265053E+01  1.337911876E+02  1.250000000E+02  0.00000E+00  9.000E+00
      21     1     1     2   512   501 -1.626310153E+01 -2.097035137E+01 -5.535546446E+01  6.138787790E+01  0.000000000E+00  0.00000E+00  9.000E+00
#rwgt            1           1   4.9408528316583079E-002           8      178960           0
</event>
<event>
      5   9999  3.79277E-02  6.06002E+00 -1.00000E+00  2.24803E-01
      21    -1     0     0   502   501  0.000000000E+00  0.000000000E+00  3.034305908E+02  3.034305908E+02  0.000000000E+00  0.00000E+00  9.000E+00
      21    -1     0     0   511   502  0.000000000E+00  0.000000000E+00 -1.402974413E+02  1.402974413E+02  0.000000000E+00  0.00000E+00  9.000E+00
      25     1     1     2     0     0 -6.654888535E+01  1.168825186E+02  1.449657075E+02  2.339451510E+02  1.250000000E+02  0.00000E+00  9.000E+00
      25     1     1     2     0     0  6.708956392E+01 -1.108466679E+02  4.226869688E+01  1.849314362E+02  1.250000000E+02  0.00000E+00  9.000E+00
      21     1     1     2   511   501 -5.406785654E-01 -6.035850727E+00 -2.410125489E+01  2.485144492E+01  0.000000000E+00  0.00000E+00  9.000E+00
#rwgt            1           1   3.4992244232881782E-002           8      179104           0
</event>
<event>
      5   9999  3.79277E-02  8.10270E+01 -1.00000E+00  1.28082E-01
      21    -1     0     0   512   501  0.000000000E+00  0.000000000E+00  4.556306075E+02  4.556306075E+02  0.000000000E+00  0.00000E+00  9.000E+00
      21    -1     0     0   501   502  0.000000000E+00  0.000000000E+00 -1.293059397E+02  1.293059397E+02  0.000000000E+00  0.00000E+00  9.000E+00
      25     1     1     2     0     0 -5.849065423E+01  5.113856762E+01  1.554465933E+02  2.140676367E+02  1.250000000E+02  0.00000E+00  9.000E+00
      25     1     1     2     0     0 -1.365967994E+01 -8.801268750E+01 -2.809003379E+01  1.560348359E+02  1.250000000E+02  0.00000E+00  9.000E+00
      21     1     1     2   512   502  7.215033417E+01  3.687411988E+01  1.989681083E+02  2.148340745E+02  3.814697266E-06  0.00000E+00  9.000E+00
#rwgt            1           1   2.4711711716758268E-002           8      179421           0
</event>
<event>
      5   9999  3.79277E-02  5.69046E+01 -1.00000E+00  1.35944E-01
      21    -1     0     0   502   511  0.000000000E+00  0.000000000E+00  4.444878922E+02  4.444878922E+02  0.000000000E+00  0.00000E+00  9.000E+00
      21    -1     0     0   501   502  0.000000000E+00  0.000000000E+00 -1.870096549E+02  1.870096549E+02  0.000000000E+00  0.00000E+00  9.000E+00
      25     1     1     2     0     0  8.313037568E+01  1.176493467E+02  1.083053653E+02  2.193332631E+02  1.250000000E+02  0.00000E+00  9.000E+00
      25     1     1     2     0     0 -1.304696348E+02 -1.492267711E+02 -1.852705517E+01  2.350727687E+02  1.250000000E+02  0.00000E+00  9.000E+00
      21     1     1     2   501   511  4.733925913E+01  3.157742442E+01  1.676999272E+02  1.770915153E+02  3.303624740E-06  0.00000E+00  9.000E+00
#rwgt            1           1   6.9717779960644502E-002           8      179491           0
</event>
<event>
      5   9999  3.79277E-02  1.61706E+01 -1.00000E+00  1.74363E-01
      21    -1     0     0   502   501  0.000000000E+00  0.000000000E+00  1.034676866E+03  1.034676866E+03  0.000000000E+00  0.00000E+00  9.000E+00
      21    -1     0     0   501   512  0.000000000E+00  0.000000000E+00 -3.994497356E+02  3.994497356E+02  0.000000000E+00  0.00000E+00  9.000E+00
      25     1     1     2     0     0 -5.334892516E+01  3.349505832E+01  2.123226569E+02  2.543107103E+02  1.250000000E+02  0.00000E+00  9.000E+00
      25     1     1     2     0     0  6.486533261E+01 -2.214337052E+01  7.948430066E+02  8.075260029E+02  1.250000000E+02  0.00000E+00  9.000E+00
      21     1     1     2   502   512 -1.151640745E+01 -1.135168781E+01 -3.719385332E+02  3.722898883E+02  0.000000000E+00  0.00000E+00  9.000E+00
#rwgt            1           1   4.0234086190360785E-002           8      179575           0
</event>
<event>
      5   9999  3.79277E-02  4.19897E+01 -1.00000E+00  1.43545E-01
      21    -1     0     0   502   511  0.000000000E+00  0.000000000E+00  1.484552255E+02  1.484552255E+02  0.000000000E+00  0.00000E+00  9.000E+00
      21    -1     0     0   501   502  0.000000000E+00  0.000000000E+00 -3.367049141E+02  3.367049141E+02  0.000000000E+00  0.00000E+00  9.000E+00
      25     1     1     2     0     0  1.388566398E+02  5.135164349E+01 -8.266405216E+01  2.106573123E+02  1.250000000E+02  0.00000E+00  9.000E+00
      25     1     1     2     0     0 -1.022324598E+02 -7.188947862E+01 -1.356895697E+02  2.228367840E+02  1.250000000E+02  0.00000E+00  9.000E+00
      21     1     1     2   501   511 -3.662418002E+01  2.053783513E+01  3.010393326E+01  5.166604332E+01  4.768371582E-07  0.00000E+00  9.000E+00
#rwgt            1           1   3.4169878862725149E-002           8      179997           0
</event>
<event>
      5   9999  3.79277E-02  2.93130E+01 -1.00000E+00  1.53742E-01
      21    -1     0     0   512   501  0.000000000E+00  0.000000000E+00  3.353071727E+02  3.353071727E+02  0.000000000E+00  0.00000E+00  9.000E+00
      21    -1     0     0   501   502  0.000000000E+00  0.000000000E+00 -5.500519800E+02  5.500519800E+02  0.000000000E+00  0.00000E+00  9.000E+00
      25     1     1     2     0     0  7.229992390E+01 -2.546106889E+02  1.871730771E+02  3.474372500E+02  1.250000000E+02  0.00000E+00  9.000E+00
      25     1     1     2     0     0 -8.786821541E+01  2.794477270E+02 -3.957080636E+02  5.079583910E+02  1.250000000E+02  0.00000E+00  9.000E+00
      21     1     1     2   512   502  1.556829151E+01 -2.483703809E+01 -6.209820727E+00  2.996351173E+01  5.717076687E-07  0.00000E+00  9.000E+00
#rwgt            1           1   3.3217994989638275E-002           8      180140           0
</event>
<event>
      5   9999  3.79277E-02  5.65640E+02 -1.00000E+00  9.73536E-02
      21    -1     0     0   502   501  0.000000000E+00  0.000000000E+00  4.860239935E+02  4.860239935E+02  0.000000000E+00  0.00000E+00  9.000E+00
       2    -1     0     0   501     0  0.000000000E+00  0.000000000E+00 -2.843845666E+03  2.843845666E+03  0.000000000E+00  0.00000E+00  9.000E+00
      25     1     1     2     0     0 -5.086724851E+02  8.339088450E+01 -1.285192100E+02  5.457507893E+02  1.250000000E+02  0.00000E+00  9.000E+00
      25     1     1     2     0     0  1.987830694E+02 -5.565894356E+02 -1.406820533E+02  6.202603878E+02  1.250000000E+02  0.00000E+00  9.000E+00
       2     1     1     2   502     0  3.098894157E+02  4.731985511E+02 -2.088620409E+03  2.163858483E+03  3.051757812E-05  0.00000E+00  9.000E+00
#rwgt            1           1  0.15811856018704226                8      180423           0
</event>
<event>
      5   9999  3.79277E-02  1.19294E+02 -1.00000E+00  1.20477E-01
      -4    -1     0     0     0   501  0.000000000E+00  0.000000000E+00  1.432389671E+03  1.432389671E+03  0.000000000E+00  0.00000E+00  9.000E+00
      21    -1     0     0   501   502  0.000000000E+00  0.000000000E+00 -6.611346451E+02  6.611346451E+02  0.000000000E+00  0.00000E+00  9.000E+00
      25     1     1     2     0     0 -8.412508349E+01 -1.475155860E+02 -4.490830584E+02  4.961234435E+02  1.250000000E+02  0.00000E+00  9.000E+00
      25     1     1     2     0     0  4.755635115E+00  5.845611081E+01 -1.603290890E+02  2.115895785E+02  1.250000000E+02  0.00000E+00  9.000E+00
      -4     1     1     2     0   502  7.936944837E+01  8.905947515E+01  1.380667173E+03  1.385811294E+03  1.525878906E-05  0.00000E+00  9.000E+00
#rwgt            1           1   4.4588513331216724E-002           8      180473           0
</event>
<event>
      5   9999 -3.97135E-02  4.93007E+01 -1.00000E+00  1.39425E-01
      21    -1     0     0   502   511  0.000000000E+00  0.000000000E+00  1.174374514E+02  1.174374514E+02  0.000000000E+00  0.00000E+00  9.000E+00
      21    -1     0     0   501   502  0.000000000E+00  0.000000000E+00 -4.084010610E+02  4.084010610E+02  0.000000000E+00  0.00000E+00  9.000E+00
      25     1     1     2     0     0 -4.047793117E-02 -1.399823538E+02 -2.257381774E+02  2.935605316E+02  1.250000000E+02  0.00000E+00  9.000E+00
      25     1     1     2     0     0 -4.132639331E+01  1.131619019E+02 -5.229550999E+01  1.813099754E+02  1.250000000E+02  0.00000E+00  9.000E+00
      21     1     1     2   501   511  4.136687124E+01  2.682045185E+01 -1.292992226E+01  5.096800530E+01  8.259061849E-07  0.00000E+00  9.000E+00
#rwgt            1           1 -0.26403827506418809                8      180591           0
</event>
<event>
      5   9999  3.79277E-02  1.46716E+01 -1.00000E+00  1.78294E-01
      21    -1     0     0   512   501  0.000000000E+00  0.000000000E+00  6.062221760E+02  6.062221760E+02  0.000000000E+00  0.00000E+00  9.000E+00
      21    -1     0     0   501   502  0.000000000E+00  0.000000000E+00 -1.066617008E+02  1.066617008E+02  0.000000000E+00  0.00000E+00  9.000E+00
      25     1     1     2     0     0 -9.388100949E+01  1.067465291E+02  1.989104713E+02  2.745884939E+02  1.250000000E+02  0.00000E+00  9.000E+00
      25     1     1     2     0     0  1.047070856E+02 -1.166486749E+02  7.794360932E+01  2.151062374E+02  1.250000000E+02  0.00000E+00  9.000E+00
      21     1     1     2   512   502 -1.082607615E+01  9.902145761E+00  2.227063946E+02  2.231891454E+02  0.000000000E+00  0.00000E+00  9.000E+00
#rwgt            1           1   3.6009229658514219E-002           8      180860           0
</event>
<event>
      5   9999  3.79277E-02  7.72689E+00 -1.00000E+00  2.09663E-01
      21    -1     0     0   502   501  0.000000000E+00  0.000000000E+00  2.979727237E+02  2.979727237E+02  0.000000000E+00  0.00000E+00  9.000E+00
      21    -1     0     0   501   511  0.000000000E+00  0.000000000E+00 -2.401231857E+02  2.401231857E+02  0.000000000E+00  0.00000E+00  9.000E+00
      25     1     1     2     0     0  2.496496512E+01  1.407620838E+02  2.015948907E+02  2.769525477E+02  1.250000000E+02  0.00000E+00  9.000E+00
      25     1     1     2     0     0 -2.459191933E+01 -1.484799604E+02 -1.057971708E+02  2.224165067E+02  1.250000000E+02  0.00000E+00  9.000E+00
      21     1     1     2   502   511 -3.730457978E-01  7.717876526E+00 -3.794818192E+01  3.872685492E+01  6.743495762E-07  0.00000E+00  9.000E+00
#rwgt            1           1   4.1504656235411649E-002           8      181059           0
</event>
<event>
      5   9999  3.79277E-02  1.04664E+02 -1.00000E+00  1.22944E-01
      21    -1     0     0   502   501  0.000000000E+00  0.000000000E+00  5.795529376E+02  5.795529376E+02  0.000000000E+00  0.00000E+00  9.000E+00
      21    -1     0     0   512   502  0.000000000E+00  0.000000000E+00 -1.759050256E+02  1.759050256E+02  0.000000000E+00  0.00000E+00  9.000E+00
      25     1     1     2     0     0 -2.264587649E+02 -3.079478497E+01  8.763337352E+01  2.748390423E+02  1.250000000E+02  0.00000E+00  9.000E+00
      25     1     1     2     0     0  1.780377774E+02  1.235841726E+02  2.640855240E+02  3.637810631E+02  1.250000000E+02  0.00000E+00  9.000E+00
      21     1     1     2   512   501  4.842098754E+01 -9.278938760E+01  5.192901450E+01  1.168378579E+02  6.743495762E-07  0.00000E+00  9.000E+00
#rwgt            1           1   3.8111780441960695E-002           8      181344           0
</event>
<event>
      5   9999  3.79277E-02  6.67479E+01 -1.00000E+00  1.32276E-01
      21    -1     0     0   502   501  0.000000000E+00  0.000000000E+00  3.364968028E+02  3.364968028E+02  0.000000000E+00  0.00000E+00  9.000E+00
       4    -1     0     0   501     0  0.000000000E+00  0.000000000E+00 -2.578845276E+02  2.578845276E+02  0.000000000E+00  0.00000E+00  9.000E+00
      25     1     1     2     0     0  5.641321167E+00 -1.141623242E+02  2.459130237E+02  2.986018687E+02  1.250000000E+02  0.00000E+00  9.000E+00
      25     1     1     2     0     0  4.661574150E+01  7.263541610E+01 -4.840174612E+01  1.594260332E+02  1.250000000E+02  0.00000E+00  9.000E+00
       4     1     1     2   502     0 -5.225706267E+01  4.152690813E+01 -1.188990023E+02  1.363534285E+02  0.000000000E+00  0.00000E+00  9.000E+00
#rwgt            1           1   3.0211168785869946E-002           8      181459           0
</event>
<event>
      5   9999  3.79277E-02  3.56570E+01 -1.00000E+00  1.48005E-01
      21    -1     0     0   502   501  0.000000000E+00  0.000000000E+00  1.010733706E+03  1.010733706E+03  0.000000000E+00  0.00000E+00  9.000E+00
      21    -1     0     0   501   511  0.000000000E+00  0.000000000E+00 -1.013736011E+02  1.013736011E+02  0.000000000E+00  0.00000E+00  9.000E+00
      25     1     1     2     0     0  1.419342402E+02 -7.489732376E+01  5.101310335E+02  5.491935988E+02  1.250000000E+02  0.00000E+00  9.000E+00
      25     1     1     2     0     0 -1.735079942E+02  5.832866408E+01  4.495583311E+02  5.012334288E+02  1.250000000E+02  0.00000E+00  9.000E+00
      21     1     1     2   502   511  3.157375404E+01  1.656865968E+01 -5.032926001E+01  6.168027919E+01  6.743495762E-07  0.00000E+00  9.000E+00
#rwgt            1           1   5.3365054992513199E-002           8      181521           0
</event>
<event>
      5   9999  3.79277E-02  1.23378E+02 -1.00000E+00  1.19859E-01
      21    -1     0     0   512   501  0.000000000E+00  0.000000000E+00  1.918751130E+02  1.918751130E+02  0.000000000E+00  0.00000E+00  9.000E+00
      21    -1     0     0   501   502  0.000000000E+00  0.000000000E+00 -1.018979823E+03  1.018979823E+03  0.000000000E+00  0.00000E+00  9.000E+00
      25     1     1     2     0     0  9.614571521E+00  1.890805931E+02 -6.934460534E+02  7.296138291E+02  1.250000000E+02  0.00000E+00  9.000E+00
      25     1     1     2     0     0  1.133778466E+02 -1.988241249E+02 -2.111454074E+02  3.355487324E+02  1.250000000E+02  0.00000E+00  9.000E+00
      21     1     1     2   512   502 -1.229924181E+02  9.743531859E+00  7.748675104E+01  1.456923742E+02  3.438521648E-06  0.00000E+00  9.000E+00
#rwgt            1           1   3.2046691989429568E-002           8      181750           0
</event>
<event>
      5   9999  3.79277E-02  2.18804E+01 -1.00000E+00  1.63212E-01
      21    -1     0     0   511   501  0.000000000E+00  0.000000000E+00  1.637689618E+03  1.637689618E+03  0.000000000E+00  0.00000E+00  9.000E+00
      21    -1     0     0   501   502  0.000000000E+00  0.000000000E+00 -2.492574486E+01  2.492574486E+01  0.000000000E+00  0.00000E+00  9.000E+00
      25     1     1     2     0     0 -2.187783416E+01  1.270027016E+02  8.753716856E+02  8.935932598E+02  1.250000000E+02  0.00000E+00  9.000E+00
      25     1     1     2     0     0  3.124106307E+01 -1.467785266E+02  6.367865425E+02  6.660645919E+02  1.250000000E+02  0.00000E+00  9.000E+00
      21     1     1     2   511   502 -9.363228910E+00  1.977582493E+01  1.006056451E+02  1.029575113E+02  0.000000000E+00  0.00000E+00  9.000E+00
#rwgt            1           1   3.4971187213437928E-002           8      181884           0
</event>
<event>
      5   9999  3.79277E-02  4.68812E+01 -1.00000E+00  1.40690E-01
      21    -1     0     0   512   501  0.000000000E+00  0.000000000E+00  2.252666774E+02  2.252666774E+02  0.000000000E+00  0.00000E+00  9.000E+00
      21    -1     0     0   501   502  0.000000000E+00  0.000000000E+00 -4.610809230E+02  4.610809230E+02  0.000000000E+00  0.00000E+00  9.000E+00
      25     1     1     2     0     0  2.039472312E+01 -1.910889844E+02 -6.835151828E+01  2.392234828E+02  1.250000000E+02  0.00000E+00  9.000E+00
      25     1     1     2     0     0 -4.230550469E+01  2.325348765E+02 -2.409724372E+02  3.599374112E+02  1.250000000E+02  0.00000E+00  9.000E+00
      21     1     1     2   512   502  2.191078156E+01 -4.144589210E+01  7.350970986E+01  8.718670635E+01  0.000000000E+00  0.00000E+00  9.000E+00
#rwgt            1           1   3.0134558959208062E-002           8      182112           0
</event>
<event>
      5   9999  3.79277E-02  3.43486E+01 -1.00000E+00  1.49066E-01
      21    -1     0     0   502   501  0.000000000E+00  0.000000000E+00  6.989847599E+02  6.989847599E+02  0.000000000E+00  0.00000E+00  9.000E+00
      21    -1     0     0   511   502  0.000000000E+00  0.000000000E+00 -8.655483119E+01  8.655483119E+01  0.000000000E+00  0.00000E+00  9.000E+00
      25     1     1     2     0     0  1.022283040E+02 -1.720201238E+02  2.391405890E+02  3.359386408E+02  1.250000000E+02  0.00000E+00  9.000E+00
      25     1     1     2     0     0 -7.561294949E+01  1.503072605E+02  3.504568767E+02  4.083559882E+02  1.250000000E+02  0.00000E+00  9.000E+00
      21     1     1     2   511   501 -2.661535449E+01  2.171286324E+01  2.283246307E+01  4.124496205E+01  3.371747881E-07  0.00000E+00  9.000E+00
#rwgt            1           1   2.7458627207919917E-002           8      182237           0
</event>
<event>
      5   9999  3.79277E-02  1.89417E+02 -1.00000E+00  1.12514E-01
      21    -1     0     0   502   501  0.000000000E+00  0.000000000E+00  4.375707245E+02  4.375707245E+02  0.000000000E+00  0.00000E+00  9.000E+00
      21    -1     0     0   512   502  0.000000000E+00  0.000000000E+00 -3.006054436E+02  3.006054436E+02  0.000000000E+00  0.00000E+00  9.000E+00
      25     1     1     2     0     0 -7.823425862E+01 -5.543439667E+01  1.252788590E+02  2.012793185E+02  1.250000000E+02  0.00000E+00  9.000E+00
      25     1     1     2     0     0 -9.228475283E+00  2.234496612E+02  1.549392107E+02  2.994095437E+02  1.250000000E+02  0.00000E+00  9.000E+00
      21     1     1     2   512   501  8.746273391E+01 -1.680152645E+02 -1.432527888E+02  2.374873059E+02  2.697398305E-06  0.00000E+00  9.000E+00
#rwgt            1           1   4.9859175478681961E-002           8      182377           0
</event>
<event>
      5   9999  3.79277E-02  2.26361E+01 -1.00000E+00  1.62051E-01
      21    -1     0     0   502   511  0.000000000E+00  0.000000000E+00  1.021501202E+01  1.021501202E+01  0.000000000E+00  0.00000E+00  9.000E+00
      21    -1     0     0   501   502  0.000000000E+00  0.000000000E+00 -4.330137840E+03  4.330137840E+03  0.000000000E+00  0.00000E+00  9.000E+00
      25     1     1     2     0     0 -2.163120271E+01  4.037364373E+01 -6.509534477E+02  6.644270698E+02  1.250000000E+02  0.00000E+00  9.000E+00
      25     1     1     2     0     0  1.834771273E+01 -6.277030575E+01 -3.610086041E+03  3.612841399E+03  1.250000000E+02  0.00000E+00  9.000E+00
      21     1     1     2   501   511  3.283489980E+00  2.239666202E+01 -5.888333900E+01  6.308438307E+01  1.507891493E-06  0.00000E+00  9.000E+00
#rwgt            1           1   3.6645479440977308E-003           8      182441           0
</event>
<event>
      5   9999  3.79277E-02  1.12481E+02 -1.00000E+00  1.21573E-01
      21    -1     0     0   502   501  0.000000000E+00  0.000000000E+00  5.016137128E+02  5.016137128E+02  0.000000000E+00  0.00000E+00  9.000E+00
      21    -1     0     0   501   512  0.000000000E+00  0.000000000E+00 -8.305814798E+02  8.305814798E+02  0.000000000E+00  0.00000E+00  9.000E+00
      25     1     1     2     0     0  1.174008056E+02  4.518163132E+00  1.452752959E+02  2.247960733E+02  1.250000000E+02  0.00000E+00  9.000E+00
      25     1     1     2     0     0 -2.874902351E+01  6.471163615E+01  2.959814844E+02  3.290047740E+02  1.250000000E+02  0.00000E+00  9.000E+00
      21     1     1     2   502   512 -8.865178212E+01 -6.922979928E+01 -7.702245473E+02  7.783943454E+02  1.078959322E-05  0.00000E+00  9.000E+00
#rwgt            1           1   5.5736006517719011E-002           8      182676           0
</event>
<event>
      5   9999  3.79277E-02  1.77963E+02 -1.00000E+00  1.13525E-01
      21    -1     0     0   502   511  0.000000000E+00  0.000000000E+00  4.400199670E+02  4.400199670E+02  0.000000000E+00  0.00000E+00  9.000E+00
      21    -1     0     0   501   502  0.000000000E+00  0.000000000E+00 -3.845602841E+02  3.845602841E+02  0.000000000E+00  0.00000E+00  9.000E+00
      25     1     1     2     0     0 -2.436270811E+02  1.720404886E+02 -1.008020376E+00  3.233853745E+02  1.250000000E+02  0.00000E+00  9.000E+00
      25     1     1     2     0     0  2.518621786E+02  5.731955465E+00 -6.124336718E+01  2.878248814E+02  1.250000000E+02  0.00000E+00  9.000E+00
      21     1     1     2   501   511 -8.235097593E+00 -1.777724441E+02  1.177110705E+02  2.133699951E+02  1.907348633E-06  0.00000E+00  9.000E+00
#rwgt            1           1   3.8411426096693298E-002           8      182722           0
</event>
<event>
      5   9999  3.79277E-02  1.02499E+01 -1.00000E+00  1.94526E-01
      21    -1     0     0   502   501  0.000000000E+00  0.000000000E+00  8.514034586E+01  8.514034586E+01  0.000000000E+00  0.00000E+00  9.000E+00
      21    -1     0     0   512   502  0.000000000E+00  0.000000000E+00 -7.399912205E+02  7.399912205E+02  0.000000000E+00  0.00000E+00  9.000E+00
      25     1     1     2     0     0  1.237185617E+02  1.473431807E+01 -5.280471550E+02  5.567604337E+02  1.250000000E+02  0.00000E+00  9.000E+00
      25     1     1     2     0     0 -1.141996025E+02 -1.853567984E+01 -3.235696911E+01  1.733698189E+02  1.250000000E+02  0.00000E+00  9.000E+00
      21     1     1     2   512   501 -9.518959143E+00  3.801361764E+00 -9.444675051E+01  9.500131376E+01  1.348699152E-06  0.00000E+00  9.000E+00
#rwgt            1           1   3.3352988522463926E-002           8      182860           0
</event>
<event>
      5   9999  3.79277E-02  4.86964E+01 -1.00000E+00  1.39733E-01
      21    -1     0     0   511   501  0.000000000E+00  0.000000000E+00  2.676304270E+02  2.676304270E+02  0.000000000E+00  0.00000E+00  9.000E+00
      21    -1     0     0   501   502  0.000000000E+00  0.000000000E+00 -1.976452855E+02  1.976452855E+02  0.000000000E+00  0.00000E+00  9.000E+00
      25     1     1     2     0     0  1.302768071E+02 -6.477256795E+01  5.847938900E+01  2.005302246E+02  1.250000000E+02  0.00000E+00  9.000E+00
      25     1     1     2     0     0 -1.252270672E+02  1.132064032E+02 -1.255653110E+01  2.104285498E+02  1.250000000E+02  0.00000E+00  9.000E+00
      21     1     1     2   511   502 -5.049739889E+00 -4.843383525E+01  2.406228359E+01  5.431693807E+01  1.118282261E-06  0.00000E+00  9.000E+00
#rwgt            1           1   5.3287257315671153E-002           8      183159           0
</event>
<event>
      5   9999  3.79277E-02  1.28333E+02 -1.00000E+00  1.19144E-01
      21    -1     0     0   502   501  0.000000000E+00  0.000000000E+00  5.989092277E+01  5.989092277E+01  0.000000000E+00  0.00000E+00  9.000E+00
      21    -1     0     0   501   512  0.000000000E+00  0.000000000E+00 -1.184940867E+03  1.184940867E+03  0.000000000E+00  0.00000E+00  9.000E+00
      25     1     1     2     0     0  5.737924489E+01  8.728260196E+01 -1.883662912E+02  2.490331102E+02  1.250000000E+02  0.00000E+00  9.000E+00
      25     1     1     2     0     0  5.590933075E+01 -1.475747031E+02 -4.596462448E+02  5.018005746E+02  1.250000000E+02  0.00000E+00  9.000E+00
      21     1     1     2   502   512 -1.132885756E+02  6.029210115E+01 -4.770374081E+02  4.939981048E+02  5.394796609E-06  0.00000E+00  9.000E+00
#rwgt            1           1   4.0285658935223907E-002           8      183273           0
</event>
<event>
      5   9999  3.79277E-02  7.58633E+01 -1.00000E+00  1.29476E-01
      21    -1     0     0   502   511  0.000000000E+00  0.000000000E+00  7.417622267E+02  7.417622267E+02  0.000000000E+00  0.00000E+00  9.000E+00
      21    -1     0     0   501   502  0.000000000E+00  0.000000000E+00 -2.872973672E+02  2.872973672E+02  0.000000000E+00  0.00000E+00  9.000E+00
      25     1     1     2     0     0 -1.303369509E+02  3.688185759E+02  4.513404486E+01  4.131306630E+02  1.250000000E+02  0.00000E+00  9.000E+00
      25     1     1     2     0     0  1.685348238E+02 -3.032734871E+02  2.692248066E+02  4.566024434E+02  1.250000000E+02  0.00000E+00  9.000E+00
      21     1     1     2   501   511 -3.819787289E+01 -6.554508878E+01  1.401060080E+02  1.593264876E+02  1.907348633E-06  0.00000E+00  9.000E+00
#rwgt            1           1   1.6279040932925537E-002           8      183348           0
</event>
<event>
      5   9999  3.79277E-02  1.81531E+01 -1.00000E+00  1.69917E-01
      21    -1     0     0   512   501  0.000000000E+00  0.000000000E+00  2.078742341E+02  2.078742341E+02  0.000000000E+00  0.00000E+00  9.000E+00
      21    -1     0     0   501   502  0.000000000E+00  0.000000000E+00 -3.834888179E+02  3.834888179E+02  0.000000000E+00  0.00000E+00  9.000E+00
      25     1     1     2     0     0 -1.758966847E+02  1.503527607E+02 -9.007833941E+01  2.780012654E+02  1.250000000E+02  0.00000E+00  9.000E+00
      25     1     1     2     0     0  1.889051265E+02 -1.376911337E+02 -1.064590922E+02  2.856615715E+02  1.250000000E+02  0.00000E+00  9.000E+00
      21     1     1     2   512   502 -1.300844182E+01 -1.266162700E+01  2.092284785E+01  2.770021515E+01  5.840038640E-07  0.00000E+00  9.000E+00
#rwgt            1           1   3.4670567132316733E-002           8      183479           0
</event>
<event>
      5   9999 -3.79277E-02  5.94094E+01 -1.00000E+00  1.34933E-01
      21    -1     0     0   511   501  0.000000000E+00  0.000000000E+00  4.473406920E+02  4.473406920E+02  0.000000000E+00  0.00000E+00  9.000E+00
      21    -1     0     0   501   502  0.000000000E+00  0.000000000E+00 -1.434366923E+02  1.434366923E+02  0.000000000E+00  0.00000E+00  9.000E+00
      25     1     1     2     0     0 -3.871977032E+01  1.137442082E+02 -3.165622460E+01  1.762500555E+02  1.250000000E+02  0.00000E+00  9.000E+00
      25     1     1     2     0     0 -7.477466392E+00 -7.639060195E+01  1.158196478E+02  1.868973713E+02  1.250000000E+02  0.00000E+00  9.000E+00
      21     1     1     2   511   502  4.619723671E+01 -3.735360620E+01  2.197405765E+02  2.276299575E+02  0.000000000E+00  0.00000E+00  9.000E+00
#rwgt            1           1  -3.5077586125548656E-002           8      183657           0
</event>
<event>
      5   9999  3.79277E-02  4.68986E+01 -1.00000E+00  1.40681E-01
      21    -1     0     0   502   512  0.000000000E+00  0.000000000E+00  7.140685766E+01  7.140685766E+01  0.000000000E+00  0.00000E+00  9.000E+00
      21    -1     0     0   501   502  0.000000000E+00  0.000000000E+00 -7.367671515E+02  7.367671515E+02  0.000000000E+00  0.00000E+00  9.000E+00
      25     1     1     2     0     0 -8.397656637E+01 -6.918069250E+01 -9.534298090E+01  1.911892150E+02  1.250000000E+02  0.00000E+00  9.000E+00
      25     1     1     2     0     0  7.596748681E+01  2.297105947E+01 -5.430752982E+02  5.628983107E+02  1.250000000E+02  0.00000E+00  9.000E+00
      21     1     1     2   501   512  8.009079560E+00  4.620963303E+01 -2.694201468E+01  5.408648348E+01  7.539457465E-07  0.00000E+00  9.000E+00
#rwgt            1           1   4.8934959299573803E-002           8      183787           0
</event>
<event>
      5   9999  3.79277E-02  5.80436E+01 -1.00000E+00  1.35477E-01
      21    -1     0     0   511   501  0.000000000E+00  0.000000000E+00  5.319813852E+01  5.319813852E+01  0.000000000E+00  0.00000E+00  9.000E+00
      21    -1     0     0   501   502  0.000000000E+00  0.000000000E+00 -1.590968401E+03  1.590968401E+03  0.000000000E+00  0.00000E+00  9.000E+00
      25     1     1     2     0     0  3.059073568E+01 -4.793415839E+01 -1.044979987E+02  1.725639255E+02  1.250000000E+02  0.00000E+00  9.000E+00
      25     1     1     2     0     0 -8.634732960E+01  6.406684334E+01 -1.388610865E+03  1.398365316E+03  1.250000000E+02  0.00000E+00  9.000E+00
      21     1     1     2   511   502  5.575659392E+01 -1.613268494E+01 -4.466139816E+01  7.323729770E+01  8.259061849E-07  0.00000E+00  9.000E+00
#rwgt            1           1   4.5268071177077790E-002           8      183970           0
</event>
<event>
      5   9999  3.79277E-02  2.98926E+01 -1.00000E+00  1.53148E-01
      21    -1     0     0   502   501  0.000000000E+00  0.000000000E+00  4.301813080E+02  4.301813080E+02  0.000000000E+00  0.00000E+00  9.000E+00
      21    -1     0     0   512   502  0.000000000E+00  0.000000000E+00 -2.457537887E+02  2.457537887E+02  0.000000000E+00  0.00000E+00  9.000E+00
      25     1     1     2     0     0  1.347912648E+02  1.128094597E+02 -1.015298338E+02  2.383861708E+02  1.250000000E+02  0.00000E+00  9.000E+00
      25     1     1     2     0     0 -1.615232561E+02 -1.261872972E+02  3.148737808E+02  3.959589550E+02  1.250000000E+02  0.00000E+00  9.000E+00
      21     1     1     2   512   501  2.673199135E+01  1.337783745E+01 -2.891642763E+01  4.158997094E+01  5.840038640E-07  0.00000E+00  9.000E+00
#rwgt            1           1   3.8583734721610800E-002           8      184127           0
</event>
<event>
      5   9999  3.79277E-02  2.57560E+01 -1.00000E+00  1.57788E-01
      21    -1     0     0   502   501  0.000000000E+00  0.000000000E+00  1.637112754E+02  1.637112754E+02  0.000000000E+00  0.00000E+00  9.000E+00
       1    -1     0     0   501     0  0.000000000E+00  0.000000000E+00 -6.120135719E+02  6.120135719E+02  0.000000000E+00  0.00000E+00  9.000E+00
      25     1     1     2     0     0  1.593467547E+02  4.289918124E+00  4.253112554E+00  2.026151045E+02  1.250000000E+02  0.00000E+00  9.000E+00
      25     1     1     2     0     0 -1.405868329E+02  1.335758331E+01 -8.882002821E+01  2.084636180E+02  1.250000000E+02  0.00000E+00  9.000E+00
       1     1     1     2   502     0 -1.875992173E+01 -1.764750144E+01 -3.637353809E+02  3.646461247E+02  0.000000000E+00  0.00000E+00  9.000E+00
#rwgt            1           1   5.1376260969685603E-002           8      184324           0
</event>
<event>
      5   9999  3.79277E-02  3.55019E+01 -1.00000E+00  1.48128E-01
      -2    -1     0     0     0   501  0.000000000E+00  0.000000000E+00  2.036935392E+03  2.036935392E+03  0.000000000E+00  0.00000E+00  9.000E+00
      21    -1     0     0   501   502  0.000000000E+00  0.000000000E+00 -2.776416802E+02  2.776416802E+02  0.000000000E+00  0.00000E+00  9.000E+00
      25     1     1     2     0     0 -8.726949609E+01  1.737362249E+01 -2.154150293E+02  2.644738977E+02  1.250000000E+02  0.00000E+00  9.000E+00
      25     1     1     2     0     0  6.579218165E+01  1.089494186E+01  9.618074055E+01  1.712397319E+02  1.250000000E+02  0.00000E+00  9.000E+00
      -2     1     1     2     0   502  2.147731444E+01 -2.826856435E+01  1.878528001E+03  1.878863443E+03  2.157918644E-05  0.00000E+00  9.000E+00
#rwgt            1           1   3.8822528844793702E-002           8      184447           0
</event>
<event>
      5   9999  3.79277E-02  1.19951E+01 -1.00000E+00  1.87047E-01
      21    -1     0     0   511   501  0.000000000E+00  0.000000000E+00  4.432518145E+01  4.432518145E+01  0.000000000E+00  0.00000E+00  9.000E+00
      21    -1     0     0   501   502  0.000000000E+00  0.000000000E+00 -5.782569140E+02  5.782569140E+02  0.000000000E+00  0.00000E+00  9.000E+00
      25     1     1     2     0     0 -1.520618835E+01 -7.651031594E+01 -1.684586569E+02  2.238043246E+02  1.250000000E+02  0.00000E+00  9.000E+00
      25     1     1     2     0     0  1.326710620E+01  6.467296952E+01 -3.573391518E+02  3.842848924E+02  1.250000000E+02  0.00000E+00  9.000E+00
      21     1     1     2   511   502  1.939082143E+00  1.183734642E+01 -8.133923796E+00  1.449287847E+01  3.371747881E-07  0.00000E+00  9.000E+00
#rwgt            1           1   1.1980550830410903E-002           8      184595           0
</event>
<event>
      5   9999  3.79277E-02  1.32864E+02 -1.00000E+00  1.18520E-01
      -1    -1     0     0     0   501  0.000000000E+00  0.000000000E+00  9.018819410E+02  9.018819410E+02  0.000000000E+00  0.00000E+00  9.000E+00
      21    -1     0     0   501   502  0.000000000E+00  0.000000000E+00 -2.740799200E+02  2.740799200E+02  0.000000000E+00  0.00000E+00  9.000E+00
      25     1     1     2     0     0 -7.344337240E+01 -1.700519066E+02 -1.875093225E+02  2.917127455E+02  1.250000000E+02  0.00000E+00  9.000E+00
      25     1     1     2     0     0  2.272621284E+01  4.724826810E+01  1.358129948E+02  1.918829048E+02  1.250000000E+02  0.00000E+00  9.000E+00
      -1     1     1     2     0   502  5.071715956E+01  1.228036385E+02  6.794983486E+02  6.923662107E+02  1.321449896E-05  0.00000E+00  9.000E+00
#rwgt            1           1   4.1796826894531909E-002           8      184877           0
</event>
<event>
      5   9999  3.79277E-02  2.35212E+01 -1.00000E+00  1.60760E-01
      21    -1     0     0   511   501  0.000000000E+00  0.000000000E+00  1.375602687E+02  1.375602687E+02  0.000000000E+00  0.00000E+00  9.000E+00
      21    -1     0     0   501   502  0.000000000E+00  0.000000000E+00 -5.105873279E+02  5.105873279E+02  0.000000000E+00  0.00000E+00  9.000E+00
      25     1     1     2     0     0  6.913113064E+01  1.070672954E+01 -4.395960615E+02  4.623455900E+02  1.250000000E+02  0.00000E+00  9.000E+00
      25     1     1     2     0     0 -7.140253227E+01  1.270457596E+01  3.924675627E+01  1.497499107E+02  1.250000000E+02  0.00000E+00  9.000E+00
      21     1     1     2   511   502  2.271401636E+00 -2.341130549E+01  2.732224605E+01  3.605209591E+01  6.743495762E-07  0.00000E+00  9.000E+00
#rwgt            1           1   3.1845145967213828E-002           8      184967           0
</event>
<event>
      5   9999  3.79277E-02  3.15558E+01 -1.00000E+00  1.51530E-01
      21    -1     0     0   512   501  0.000000000E+00  0.000000000E+00  1.572782687E+03  1.572782687E+03  0.000000000E+00  0.00000E+00  9.000E+00
      21    -1     0     0   501   502  0.000000000E+00  0.000000000E+00 -1.380617938E+02  1.380617938E+02  0.000000000E+00  0.00000E+00  9.000E+00
      25     1     1     2     0     0 -5.054303597E+01 -8.856753826E+01  6.368734174E+01  1.734355350E+02  1.250000000E+02  0.00000E+00  9.000E+00
      25     1     1     2     0     0  8.043257976E+01  9.868608193E+01  1.287401935E+01  1.788828752E+02  1.250000000E+02  0.00000E+00  9.000E+00
      21     1     1     2   512   502 -2.988954378E+01 -1.011854367E+01  1.358159532E+03  1.358526071E+03  1.525878906E-05  0.00000E+00  9.000E+00
#rwgt            1           1   4.3579169186604053E-002           8      185311           0
</event>
<event>
      5   9999  3.79277E-02  6.60872E+01 -1.00000E+00  1.32498E-01
      21    -1     0     0   502   511  0.000000000E+00  0.000000000E+00  1.577513752E+02  1.577513752E+02  0.000000000E+00  0.00000E+00  9.000E+00
      21    -1     0     0   501   502  0.000000000E+00  0.000000000E+00 -7.142559600E+02  7.142559600E+02  0.000000000E+00  0.00000E+00  9.000E+00
      25     1     1     2     0     0 -8.295082929E+01  8.047217051E+01 -1.119848766E+02  2.037700245E+02  1.250000000E+02  0.00000E+00  9.000E+00
      25     1     1     2     0     0  4.435925492E+01 -2.682317716E+01 -5.374386277E+02  5.542134110E+02  1.250000000E+02  0.00000E+00  9.000E+00
      21     1     1     2   501   511  3.859157438E+01 -5.364899335E+01  9.291891955E+01  1.140238997E+02  1.348699152E-06  0.00000E+00  9.000E+00
#rwgt            1           1   2.9827105005695454E-002           8      185446           0
</event>
<event>
      5   9999  3.79277E-02  4.83832E+01 -1.00000E+00  1.39895E-01
      21    -1     0     0   502   512  0.000000000E+00  0.000000000E+00  1.636859875E+02  1.636859875E+02  0.000000000E+00  0.00000E+00  9.000E+00
      21    -1     0     0   501   502  0.000000000E+00  0.000000000E+00 -2.438212069E+02  2.438212069E+02  0.000000000E+00  0.00000E+00  9.000E+00
      25     1     1     2     0     0 -9.660000796E+01  6.568074058E+01 -1.184823117E+02  2.081071345E+02  1.250000000E+02  0.00000E+00  9.000E+00
      25     1     1     2     0     0  7.378456165E+01 -2.301468563E+01  3.381161396E+01  1.508047165E+02  1.250000000E+02  0.00000E+00  9.000E+00
      21     1     1     2   501   512  2.281544631E+01 -4.266605495E+01  4.535478378E+00  4.859534339E+01  8.840797528E-07  0.00000E+00  9.000E+00
#rwgt            1           1   3.8525980113761307E-002           8      185506           0
</event>
<event>
      5   9999  3.79277E-02  3.30417E+02 -1.00000E+00  1.04247E-01
      21    -1     0     0   511   501  0.000000000E+00  0.000000000E+00  1.169457643E+03  1.169457643E+03  0.000000000E+00  0.00000E+00  9.000E+00
      21    -1     0     0   501   502  0.000000000E+00  0.000000000E+00 -1.937085525E+02  1.937085525E+02  0.000000000E+00  0.00000E+00  9.000E+00
      25     1     1     2     0     0  3.037447988E+02  1.574477479E+02  1.887760617E+02  4.102585741E+02  1.250000000E+02  0.00000E+00  9.000E+00
      25     1     1     2     0     0  2.667022483E+01 -1.585933939E+02  2.506934571E+02  3.230098682E+02  1.250000000E+02  0.00000E+00  9.000E+00
      21     1     1     2   511   502 -3.304150236E+02  1.145646004E+00  5.362795715E+02  6.298977529E+02  1.078959322E-05  0.00000E+00  9.000E+00
#rwgt            1           1   3.8781380731912889E-002           8      185826           0
</event>
<event>
      5   9999  3.79277E-02  2.99829E+02 -1.00000E+00  1.05600E-01
      21    -1     0     0   502   501  0.000000000E+00  0.000000000E+00  9.820956352E+02  9.820956352E+02  0.000000000E+00  0.00000E+00  9.000E+00
      21    -1     0     0   501   512  0.000000000E+00  0.000000000E+00 -1.797616927E+03  1.797616927E+03  0.000000000E+00  0.00000E+00  9.000E+00
      25     1     1     2     0     0  3.318082430E+02  3.995626699E+02  4.425840995E+02  6.937238085E+02  1.250000000E+02  0.00000E+00  9.000E+00
      25     1     1     2     0     0 -3.220933840E+01 -3.878237676E+02  2.950822311E+02  5.041262137E+02  1.250000000E+02  0.00000E+00  9.000E+00
      21     1     1     2   502   512 -2.995989046E+02 -1.173890224E+01 -1.553187623E+03  1.581862540E+03  3.051757812E-05  0.00000E+00  9.000E+00
#rwgt            1           1  0.13657944226835850                8      185856           0
</event>
<event>
      5   9999  3.79277E-02  6.05355E+01 -1.00000E+00  1.34497E-01
       2    -1     0     0   502     0  0.000000000E+00  0.000000000E+00  2.743736713E+03  2.743736713E+03  0.000000000E+00  0.00000E+00  9.000E+00
      21    -1     0     0   501   502  0.000000000E+00  0.000000000E+00 -7.252512208E+01  7.252512208E+01  0.000000000E+00  0.00000E+00  9.000E+00
      25     1     1     2     0     0 -8.365351215E+01 -2.991119962E+02  1.278739080E+03  1.321841342E+03  1.250000000E+02  0.00000E+00  9.000E+00
      25     1     1     2     0     0  3.456040252E+01  3.345297540E+02  5.960795260E+02  6.957301050E+02  1.250000000E+02  0.00000E+00  9.000E+00
       2     1     1     2   501     0  4.909310963E+01 -3.541775773E+01  7.963929847E+02  7.986903887E+02  1.078959322E-05  0.00000E+00  9.000E+00
#rwgt            1           1   3.0809002970300824E-002           8      185981           0
</event>
<event>
      5   9999  3.79277E-02  1.66548E+01 -1.00000E+00  1.73206E-01
       2    -1     0     0   502     0  0.000000000E+00  0.000000000E+00  4.176083681E+02  4.176083681E+02  0.000000000E+00  0.00000E+00  9.000E+00
      21    -1     0     0   501   502  0.000000000E+00  0.000000000E+00 -3.192276748E+02  3.192276748E+02  0.000000000E+00  0.00000E+00  9.000E+00
      25     1     1     2     0     0  8.679067743E+01  1.320968444E+02 -1.732749845E+02  2.657657206E+02  1.250000000E+02  0.00000E+00  9.000E+00
      25     1     1     2     0     0 -9.149072017E+01 -1.161190217E+02 -5.247722288E+00  1.936665115E+02  1.250000000E+02  0.00000E+00  9.000E+00
       2     1     1     2   501     0  4.700042745E+00 -1.597782272E+01  2.769034002E+02  2.774038108E+02  3.814697266E-06  0.00000E+00  9.000E+00
#rwgt            1           1   3.5003027370518636E-002           8      186263           0
</event>
<event>
      5   9999  3.79277E-02  2.78498E+01 -1.00000E+00  1.55318E-01
      21    -1     0     0   502   501  0.000000000E+00  0.000000000E+00  2.872810823E+02  2.872810823E+02  0.000000000E+00  0.00000E+00  9.000E+00
      21    -1     0     0   501   511  0.000000000E+00  0.000000000E+00 -1.534742734E+02  1.534742734E+02  0.000000000E+00  0.00000E+00  9.000E+00
      25     1     1     2     0     0  4.622186500E+01  8.202160219E+01 -6.173002759E+01  1.682248505E+02  1.250000000E+02  0.00000E+00  9.000E+00
      25     1     1     2     0     0 -2.093342789E+01 -7.035502711E+01  1.970661204E+02  2.446387011E+02  1.250000000E+02  0.00000E+00  9.000E+00
      21     1     1     2   502   511 -2.528843712E+01 -1.166657507E+01 -1.529283950E+00  2.789180409E+01  6.122183378E-07  0.00000E+00  9.000E+00
#rwgt            1           1   5.6550179323385769E-002           8      186609           0
</event>
<event>
      5   9999  3.79277E-02  3.45519E+01 -1.00000E+00  1.48897E-01
      21    -1     0     0   502   501  0.000000000E+00  0.000000000E+00  2.870546181E+02  2.870546181E+02  0.000000000E+00  0.00000E+00  9.000E+00
      21    -1     0     0   501   512  0.000000000E+00  0.000000000E+00 -1.940570761E+02  1.940570761E+02  0.000000000E+00  0.00000E+00  9.000E+00
      25     1     1     2     0     0  1.104269576E+01  1.569894282E+01 -1.333192281E+02  1.837591209E+02  1.250000000E+02  0.00000E+00  9.000E+00
      25     1     1     2     0     0 -2.670465505E+01 -4.649723115E+01  2.248270658E+02  2.627686066E+02  1.250000000E+02  0.00000E+00  9.000E+00
      21     1     1     2   502   512  1.566195929E+01  3.079828833E+01  1.489704286E+00  3.458396669E+01  7.932681831E-07  0.00000E+00  9.000E+00
#rwgt            1           1   4.9774773730343023E-002           8      186817           0
</event>
<event>
      5   9999  3.79277E-02  7.43824E+01 -1.00000E+00  1.29899E-01
      21    -1     0     0   502   501  0.000000000E+00  0.000000000E+00  1.999223529E+02  1.999223529E+02  0.000000000E+00  0.00000E+00  9.000E+00
       2    -1     0     0   501     0  0.000000000E+00  0.000000000E+00 -2.848144393E+03  2.848144393E+03  0.000000000E+00  0.00000E+00  9.000E+00
      25     1     1     2     0     0  1.376781475E+02 -3.290302616E+01  1.057717150E+02  2.164498490E+02  1.250000000E+02  0.00000E+00  9.000E+00
      25     1     1     2     0     0 -6.948879285E+01  6.261757253E+01 -1.208737339E+02  1.974464795E+02  1.250000000E+02  0.00000E+00  9.000E+00
       2     1     1     2   502     0 -6.818935469E+01 -2.971454637E+01 -2.633120021E+03  2.634170417E+03  5.285799584E-05  0.00000E+00  9.000E+00
#rwgt            1           1   1.4095386171315080E-002           8      187022           0
</event>
<event>
      5   9999  3.79277E-02  6.49587E+01 -1.00000E+00  1.32886E-01
      21    -1     0     0   502   511  0.000000000E+00  0.000000000E+00  4.828276610E+02  4.828276610E+02  0.000000000E+00  0.00000E+00  9.000E+00
      21    -1     0     0   501   502  0.000000000E+00  0.000000000E+00 -2.096622698E+02  2.096622698E+02  0.000000000E+00  0.00000E+00  9.000E+00
      25     1     1     2     0     0  4.643172776E+01 -2.515417548E+02  1.782673120E+02  3.359068238E+02  1.250000000E+02  0.00000E+00  9.000E+00
      25     1     1     2     0     0 -4.076142607E+01  1.868310521E+02 -1.497218421E+01  2.289465051E+02  1.250000000E+02  0.00000E+00  9.000E+00
      21     1     1     2   501   511 -5.670301685E+00  6.471070264E+01  1.098702634E+02  1.276366019E+02  1.348699152E-06  0.00000E+00  9.000E+00
#rwgt            1           1   4.3260987022373992E-002           8      187221           0
</event>
<event>
      5   9999  3.79277E-02  4.46977E+01 -1.00000E+00  1.41911E-01
      21    -1     0     0   502   501  0.000000000E+00  0.000000000E+00  5.827498293E+02  5.827498293E+02  0.000000000E+00  0.00000E+00  9.000E+00
      21    -1     0     0   501   512  0.000000000E+00  0.000000000E+00 -1.380430951E+02  1.380430951E+02  0.000000000E+00  0.00000E+00  9.000E+00
      25     1     1     2     0     0  1.497096887E+02  1.509816941E+02  2.098874325E+02  3.238613857E+02  1.250000000E+02  0.00000E+00  9.000E+00
      25     1     1     2     0     0 -1.812495825E+02 -1.193096684E+02  2.458081203E+02  3.509028927E+02  1.250000000E+02  0.00000E+00  9.000E+00
      21     1     1     2   502   512  3.153989383E+01 -3.167202574E+01 -1.098881854E+01  4.602864598E+01  3.953724850E-07  0.00000E+00  9.000E+00
#rwgt            1           1   3.0360844561255575E-002           8      187310           0
</event>
<event>
      5   9999 -3.79277E-02  2.51991E+01 -1.00000E+00  1.58493E-01
      21    -1     0     0   511   501  0.000000000E+00  0.000000000E+00  1.054981535E+03  1.054981535E+03  0.000000000E+00  0.00000E+00  9.000E+00
      21    -1     0     0   501   502  0.000000000E+00  0.000000000E+00 -3.512401048E+02  3.512401048E+02  0.000000000E+00  0.00000E+00  9.000E+00
      25     1     1     2     0     0  1.787627507E+02 -1.873747296E+02 -1.956952305E+02  3.478319042E+02  1.250000000E+02  0.00000E+00  9.000E+00
      25     1     1     2     0     0 -1.934596236E+02  1.669053406E+02  1.759531891E+02  3.344675521E+02  1.250000000E+02  0.00000E+00  9.000E+00
      21     1     1     2   511   502  1.469687294E+01  2.046938904E+01  7.234834713E+02  7.239221831E+02  0.000000000E+00  0.00000E+00  9.000E+00
#rwgt            1           1 -0.14087282426833964                8      187442           0
</event>
<event>
      5   9999  3.79277E-02  1.63755E+02 -1.00000E+00  1.14903E-01
      21    -1     0     0   502   501  0.000000000E+00  0.000000000E+00  7.264064009E+02  7.264064009E+02  0.000000000E+00  0.00000E+00  9.000E+00
      21    -1     0     0   512   502  0.000000000E+00  0.000000000E+00 -1.154248884E+02  1.154248884E+02  0.000000000E+00  0.00000E+00  9.000E+00
      25     1     1     2     0     0  1.575301320E+02 -1.539768797E+00  4.726537824E+02  5.136581659E+02  1.250000000E+02  0.00000E+00  9.000E+00
      25     1     1     2     0     0 -4.072722997E-02 -4.332268881E+01  7.850202674E+01  1.538324583E+02  1.250000000E+02  0.00000E+00  9.000E+00
      21     1     1     2   512   501 -1.574894048E+02  4.486245761E+01  5.982570331E+01  1.743406651E+02  3.234066955E-06  0.00000E+00  9.000E+00
#rwgt            1           1   5.4924647373997569E-002           8      187651           0
</event>
<event>
      5   9999  3.79277E-02  2.34416E+01 -1.00000E+00  1.60873E-01
      21    -1     0     0   511   501  0.000000000E+00  0.000000000E+00  4.006602671E+01  4.006602671E+01  0.000000000E+00  0.00000E+00  9.000E+00
      21    -1     0     0   501   502  0.000000000E+00  0.000000000E+00 -1.398933905E+03  1.398933905E+03  0.000000000E+00  0.00000E+00  9.000E+00
      25     1     1     2     0     0  1.140096383E+02  2.252881115E+01 -1.114472911E+03  1.127466458E+03  1.250000000E+02  0.00000E+00  9.000E+00
      25     1     1     2     0     0 -1.107462905E+02  6.845411399E-01 -2.292327695E+02  2.836157120E+02  1.250000000E+02  0.00000E+00  9.000E+00
      21     1     1     2   511   502 -3.263347824E+00 -2.321335229E+01 -1.516219750E+01  2.791776131E+01  6.529361695E-07  0.00000E+00  9.000E+00
#rwgt            1           1   6.4291758079420586E-002           8      187709           0
</event>
<event>
      5   9999  3.79277E-02  4.48341E+01 -1.00000E+00  1.41833E-01
      21    -1     0     0   502   501  0.000000000E+00  0.000000000E+00  1.054671662E+03  1.054671662E+03  0.000000000E+00  0.00000E+00  9.000E+00
      21    -1     0     0   501   512  0.000000000E+00  0.000000000E+00 -1.056139750E+02  1.056139750E+02  0.000000000E+00  0.00000E+00  9.000E+00
      25     1     1     2     0     0  1.825109558E+01  4.030950874E+01  9.318003681E+01  1.620662773E+02  1.250000000E+02  0.00000E+00  9.000E+00
      25     1     1     2     0     0  1.257112739E+01 -7.750463938E+00  9.152254356E+02  9.238401923E+02  1.250000000E+02  0.00000E+00  9.000E+00
      21     1     1     2   502   512 -3.082222297E+01 -3.255904480E+01 -5.934778573E+01  7.437916710E+01  1.784161275E-06  0.00000E+00  9.000E+00
#rwgt            1           1   4.7548077160331235E-002           8      187917           0
</event>
<event>
      5   9999  3.79277E-02  1.80608E+01 -1.00000E+00  1.70108E-01
      21    -1     0     0   502   511  0.000000000E+00  0.000000000E+00  5.604212169E+02  5.604212169E+02  0.000000000E+00  0.00000E+00  9.000E+00
      21    -1     0     0   501   502  0.000000000E+00  0.000000000E+00 -1.098969842E+02  1.098969842E+02  0.000000000E+00  0.00000E+00  9.000E+00
      25     1     1     2     0     0  8.911983927E+01 -7.603864827E+01  5.562517449E+01  1.801204647E+02  1.250000000E+02  0.00000E+00  9.000E+00
      25     1     1     2     0     0 -7.469493295E+01  8.690675626E+01  1.044032894E+02  1.991410659E+02  1.250000000E+02  0.00000E+00  9.000E+00
      21     1     1     2   501   511 -1.442490632E+01 -1.086810798E+01  2.904957688E+02  2.910566704E+02  0.000000000E+00  0.00000E+00  9.000E+00
#rwgt            1           1   4.2594565421578551E-002           8      188038           0
</event>
<event>
      5   9999  3.79277E-02  3.40530E+01 -1.00000E+00  1.49313E-01
      21    -1     0     0   502   501  0.000000000E+00  0.000000000E+00  8.944997646E+02  8.944997646E+02  0.000000000E+00  0.00000E+00  9.000E+00
      21    -1     0     0   501   512  0.000000000E+00  0.000000000E+00 -1.189781471E+02  1.189781471E+02  0.000000000E+00  0.00000E+00  9.000E+00
      25     1     1     2     0     0 -1.333088707E+02 -1.272646526E+02  2.232211124E+02  3.153097078E+02  1.250000000E+02  0.00000E+00  9.000E+00
      25     1     1     2     0     0  1.079957958E+02  1.044862005E+02  6.047949190E+02  6.355960605E+02  1.250000000E+02  0.00000E+00  9.000E+00
      21     1     1     2   502   512  2.531307482E+01  2.277845211E+01 -5.249441399E+01  6.257214346E+01  1.784161275E-06  0.00000E+00  9.000E+00
#rwgt            1           1   4.9954178463765216E-002           8      188334           0
</event>
<event>
      5   9999  3.79277E-02  5.77047E+01 -1.00000E+00  1.35615E-01
      21    -1     0     0   502   501  0.000000000E+00  0.000000000E+00  4.601072929E+02  4.601072929E+02  0.000000000E+00  0.00000E+00  9.000E+00
      21    -1     0     0   511   502  0.000000000E+00  0.000000000E+00 -2.215694933E+02  2.215694933E+02  0.000000000E+00  0.00000E+00  9.000E+00
      25     1     1     2     0     0  1.656249074E+02 -4.708838628E+01  2.836281796E+02  3.545685693E+02  1.250000000E+02  0.00000E+00  9.000E+00
      25     1     1     2     0     0 -2.225487769E+02  3.762766338E+01 -7.265744474E+00  2.581115848E+02  1.250000000E+02  0.00000E+00  9.000E+00
      21     1     1     2   511   501  5.692386952E+01  9.460722898E+00 -3.782463543E+01  6.899663212E+01  8.259061849E-07  0.00000E+00  9.000E+00
#rwgt            1           1   2.1353831493460734E-002           8      188573           0
</event>
<event>
      5   9999  3.79277E-02  3.71139E+01 -1.00000E+00  1.46886E-01
      21    -1     0     0   502   501  0.000000000E+00  0.000000000E+00  6.251292372E+02  6.251292372E+02  0.000000000E+00  0.00000E+00  9.000E+00
      21    -1     0     0   512   502  0.000000000E+00  0.000000000E+00 -5.334990032E+02  5.334990032E+02  0.000000000E+00  0.00000E+00  9.000E+00
      25     1     1     2     0     0  1.649665493E+02  9.490114378E-01 -1.012089963E+02  2.303977516E+02  1.250000000E+02  0.00000E+00  9.000E+00
      25     1     1     2     0     0 -1.362230287E+02 -2.442775234E+01  5.440186239E+02  5.750953762E+02  1.250000000E+02  0.00000E+00  9.000E+00
      21     1     1     2   512   501 -2.874352065E+01  2.347874091E+01 -3.511793936E+02  3.531351126E+02  5.394796609E-06  0.00000E+00  9.000E+00
#rwgt            1           1   4.1468664714417097E-002           8      188696           0
</event>
<event>
      5   9999  3.79277E-02  8.13267E+01 -1.00000E+00  1.28005E-01
       2    -1     0     0   502     0  0.000000000E+00  0.000000000E+00  2.487624544E+03  2.487624544E+03  0.000000000E+00  0.00000E+00  9.000E+00
      21    -1     0     0   501   502  0.000000000E+00  0.000000000E+00 -3.095735153E+01  3.095735153E+01  0.000000000E+00  0.00000E+00  9.000E+00
      25     1     1     2     0     0  1.660688457E+02  7.268279315E+01  1.584728423E+03  1.599953382E+03  1.250000000E+02  0.00000E+00  9.000E+00
      25     1     1     2     0     0 -9.694093971E+01 -1.155240341E+02  4.816553684E+02  5.199617699E+02  1.250000000E+02  0.00000E+00  9.000E+00
       2     1     1     2   501     0 -6.912790598E+01  4.284124095E+01  3.902834006E+02  3.986667432E+02  7.629394531E-06  0.00000E+00  9.000E+00
#rwgt            1           1  0.11835120990884733                8      188772           0
</event>
<event>
      5   9999  3.79277E-02  1.89633E+01 -1.00000E+00  1.68299E-01
      21    -1     0     0   511   501  0.000000000E+00  0.000000000E+00  3.706787209E+02  3.706787209E+02  0.000000000E+00  0.00000E+00  9.000E+00
      21    -1     0     0   501   502  0.000000000E+00  0.000000000E+00 -2.793038959E+02  2.793038959E+02  0.000000000E+00  0.00000E+00  9.000E+00
      25     1     1     2     0     0 -2.562845282E+01  8.207876544E+01 -1.032630877E+01  1.520702929E+02  1.250000000E+02  0.00000E+00  9.000E+00
      25     1     1     2     0     0  1.309592780E+01 -6.784706245E+01 -1.719913057E+02  2.235637190E+02  1.250000000E+02  0.00000E+00  9.000E+00
      21     1     1     2   511   502  1.253252502E+01 -1.423170300E+01  2.736924395E+02  2.743486049E+02  6.607249480E-06  0.00000E+00  9.000E+00
#rwgt            1           1   4.3023285123436825E-002           8      188845           0
</event>
<event>
      5   9999  3.79277E-02  3.60481E+01 -1.00000E+00  1.47699E-01
      21    -1     0     0   502   501  0.000000000E+00  0.000000000E+00  6.724135514E+01  6.724135514E+01  0.000000000E+00  0.00000E+00  9.000E+00
      21    -1     0     0   512   502  0.000000000E+00  0.000000000E+00 -6.350757165E+02  6.350757165E+02  0.000000000E+00  0.00000E+00  9.000E+00
      25     1     1     2     0     0  1.228084396E+02 -7.933953366E+01 -3.147367298E+02  3.688643159E+02  1.250000000E+02  0.00000E+00  9.000E+00
      25     1     1     2     0     0 -1.208494633E+02  4.334472707E+01 -1.928798222E+02  2.632697931E+02  1.250000000E+02  0.00000E+00  9.000E+00
      21     1     1     2   512   501 -1.958976278E+00  3.599480660E+01 -6.021780936E+01  7.018296271E+01  9.536743164E-07  0.00000E+00  9.000E+00
#rwgt            1           1   4.2494355383949946E-002           8      189045           0
</event>
<event>
      5   9999  3.79277E-02  1.76241E+01 -1.00000E+00  1.71032E-01
      21    -1     0     0   502   501  0.000000000E+00  0.000000000E+00  5.889581011E+02  5.889581011E+02  0.000000000E+00  0.00000E+00  9.000E+00
      21    -1     0     0   511   502  0.000000000E+00  0.000000000E+00 -8.237765867E+02  8.237765867E+02  0.000000000E+00  0.00000E+00  9.000E+00
      25     1     1     2     0     0  1.459058383E+02 -2.295513863E+01  1.560446008E+02  2.485766873E+02  1.250000000E+02  0.00000E+00  9.000E+00
      25     1     1     2     0     0 -1.291093824E+02  1.761775215E+01  3.654575821E+02  4.076320180E+02  1.250000000E+02  0.00000E+00  9.000E+00
      21     1     1     2   511   501 -1.679645584E+01  5.337386478E+00 -7.563206685E+02  7.565259825E+02  0.000000000E+00  0.00000E+00  9.000E+00
#rwgt            1           1   2.7316667355410985E-002           8      189159           0
</event>
<event>
      5   9999  3.79277E-02  2.07947E+02 -1.00000E+00  1.11035E-01
      21    -1     0     0   512   501  0.000000000E+00  0.000000000E+00  9.020740361E+02  9.020740361E+02  0.000000000E+00  0.00000E+00  9.000E+00
      21    -1     0     0   501   502  0.000000000E+00  0.000000000E+00 -2.948068558E+02  2.948068558E+02  0.000000000E+00  0.00000E+00  9.000E+00
      25     1     1     2     0     0  1.989058507E+02  9.618785212E+01  7.270556811E+00  2.539557074E+02  1.250000000E+02  0.00000E+00  9.000E+00
      25     1     1     2     0     0 -6.561756458E+01 -2.558000286E+02 -1.616632982E+01  2.926186420E+02  1.250000000E+02  0.00000E+00  9.000E+00
      21     1     1     2   512   502 -1.332882861E+02  1.596121765E+02  6.161629533E+02  6.503065424E+02  0.000000000E+00  0.00000E+00  9.000E+00
#rwgt            2          11   2.0949868468550501E-003           8      189374           0
</event>
<event>
      5   9999  3.79277E-02  1.14177E+01 -1.00000E+00  1.89329E-01
      21    -1     0     0   511   501  0.000000000E+00  0.000000000E+00  1.177350747E+02  1.177350747E+02  0.000000000E+00  0.00000E+00  9.000E+00
      21    -1     0     0   501   502  0.000000000E+00  0.000000000E+00 -3.358362016E+02  3.358362016E+02  0.000000000E+00  0.00000E+00  9.000E+00
      25     1     1     2     0     0 -1.088139020E+02  8.991414234E+01 -1.712435299E+02  2.547044656E+02  1.250000000E+02  0.00000E+00  9.000E+00
      25     1     1     2     0     0  9.745457313E+01 -8.876153391E+01 -4.196995670E+01  1.864469924E+02  1.250000000E+02  0.00000E+00  9.000E+00
      21     1     1     2   511   502  1.135932885E+01 -1.152608431E+00 -4.887640294E+00  1.241981827E+01  1.332800375E-07  0.00000E+00  9.000E+00
#rwgt            1           1   3.7186614958988520E-002           8      189604           0
</event>
<event>
      5   9999  3.79277E-02  7.17354E+01 -1.00000E+00  1.30684E-01
      21    -1     0     0   512   501  0.000000000E+00  0.000000000E+00  8.884682391E+02  8.884682391E+02  0.000000000E+00  0.00000E+00  9.000E+00
      21    -1     0     0   501   502  0.000000000E+00  0.000000000E+00 -1.065029928E+02  1.065029928E+02  0.000000000E+00  0.00000E+00  9.000E+00
      25     1     1     2     0     0  1.014864704E+02 -1.935920602E+02  2.964970666E+02  3.889895885E+02  1.250000000E+02  0.00000E+00  9.000E+00
      25     1     1     2     0     0 -4.400311954E+01  1.506778021E+02  1.205692043E+02  2.340982862E+02  1.250000000E+02  0.00000E+00  9.000E+00
      21     1     1     2   512   502 -5.748335090E+01  4.291425816E+01  3.648989754E+02  3.718833573E+02  0.000000000E+00  0.00000E+00  9.000E+00
#rwgt            1           1   5.4318926048992182E-002           8      189920           0
</event>
<event>
      5   9999  3.79277E-02  4.72437E+01 -1.00000E+00  1.40495E-01
      21    -1     0     0   502   501  0.000000000E+00  0.000000000E+00  6.020172694E+02  6.020172694E+02  0.000000000E+00  0.00000E+00  9.000E+00
       2    -1     0     0   501     0  0.000000000E+00  0.000000000E+00 -1.510214939E+03  1.510214939E+03  0.000000000E+00  0.00000E+00  9.000E+00
      25     1     1     2     0     0  2.687164920E+01  1.987771226E+02  3.346602348E+02  4.097034327E+02  1.250000000E+02  0.00000E+00  9.000E+00
      25     1     1     2     0     0 -4.144481088E+01 -1.538372907E+02  1.847622590E+02  2.741271178E+02  1.250000000E+02  0.00000E+00  9.000E+00
       2     1     1     2   502     0  1.457316168E+01 -4.493983188E+01 -1.427620163E+03  1.428401657E+03  2.157918644E-05  0.00000E+00  9.000E+00
#rwgt            1           1   4.9278848441922582E-002           8      190050           0
</event>
<event>
      5   9999  3.79277E-02  6.72045E+01 -1.00000E+00  1.32123E-01
      21    -1     0     0   511   501  0.000000000E+00  0.000000000E+00  1.842634740E+02  1.842634740E+02  0.000000000E+00  0.00000E+00  9.000E+00
      21    -1     0     0   501   502  0.000000000E+00  0.000000000E+00 -3.931510037E+02  3.931510037E+02  0.000000000E+00  0.00000E+00  9.000E+00
      25     1     1     2     0     0 -2.213037908E+02  5.282072633E+01 -1.258042497E+02  2.884737531E+02  1.250000000E+02  0.00000E+00  9.000E+00
      25     1     1     2     0     0  1.550023406E+02 -4.184052666E+01 -8.771983986E+01  2.215764553E+02  1.250000000E+02  0.00000E+00  9.000E+00
      21     1     1     2   511   502  6.630145025E+01 -1.098019967E+01  4.636559942E+00  6.736426929E+01  1.061230529E-06  0.00000E+00  9.000E+00
#rwgt            1           1   3.7717692413141261E-002           8      190161           0
</event>
<event>
      5   9999  3.79277E-02  3.35265E+01 -1.00000E+00  1.49761E-01
      21    -1     0     0   502   512  0.000000000E+00  0.000000000E+00  5.045971443E+01  5.045971443E+01  0.000000000E+00  0.00000E+00  9.000E+00
      21    -1     0     0   501   502  0.000000000E+00  0.000000000E+00 -2.306439810E+03  2.306439810E+03  0.000000000E+00  0.00000E+00  9.000E+00
      25     1     1     2     0     0 -2.137944718E+02 -6.006553189E+01 -7.746935722E+02  8.155311614E+02  1.250000000E+02  0.00000E+00  9.000E+00
      25     1     1     2     0     0  2.378298435E+02  3.669192077E+01 -1.483201926E+03  1.507787214E+03  1.250000000E+02  0.00000E+00  9.000E+00
      21     1     1     2   501   512 -2.403537165E+01  2.337361112E+01  1.915402248E+00  3.358114877E+01  3.576278687E-07  0.00000E+00  9.000E+00
#rwgt            1           1   8.5035631703097969E-002           8      190324           0
</event>
<event>
      5   9999  3.79277E-02  3.26420E+01 -1.00000E+00  1.50537E-01
      21    -1     0     0   502   501  0.000000000E+00  0.000000000E+00  3.172284438E+02  3.172284438E+02  0.000000000E+00  0.00000E+00  9.000E+00
      21    -1     0     0   511   502  0.000000000E+00  0.000000000E+00 -1.408554834E+02  1.408554834E+02  0.000000000E+00  0.00000E+00  9.000E+00
      25     1     1     2     0     0  1.181349778E+01  1.210353592E+02  6.582137575E+01  1.864043197E+02  1.250000000E+02  0.00000E+00  9.000E+00
      25     1     1     2     0     0 -4.407243730E+01 -1.160492673E+02  1.420616086E+02  2.263102136E+02  1.250000000E+02  0.00000E+00  9.000E+00
      21     1     1     2   511   501  3.225893952E+01 -4.986091929E+00 -3.151002394E+01  4.536939387E+01  1.011524364E-06  0.00000E+00  9.000E+00
#rwgt            1           1   2.1511985345052605E-002           8      190477           0
</event>
<event>
      5   9999  3.79277E-02  8.63787E+00 -1.00000E+00  2.03408E-01
      21    -1     0     0   502   512  0.000000000E+00  0.000000000E+00  2.848844542E+02  2.848844542E+02  0.000000000E+00  0.00000E+00  9.000E+00
      21    -1     0     0   501   502  0.000000000E+00  0.000000000E+00 -1.579567048E+02  1.579567048E+02  0.000000000E+00  0.00000E+00  9.000E+00
      25     1     1     2     0     0 -1.247335012E+02 -9.253770693E+01  1.211419442E+02  2.332853278E+02  1.250000000E+02  0.00000E+00  9.000E+00
      25     1     1     2     0     0  1.202143711E+02  8.517630857E+01 -7.896647330E+00  1.933749094E+02  1.250000000E+02  0.00000E+00  9.000E+00
      21     1     1     2   501   512  4.519130175E+00  7.361398357E+00  1.368245251E+01  1.618092179E+01  0.000000000E+00  0.00000E+00  9.000E+00
#rwgt            1           1   3.7062947643133497E-002           8      190575           0
</event>
<event>
      5   9999  3.79277E-02  3.73270E+01 -1.00000E+00  1.46728E-01
      21    -1     0     0   502   511  0.000000000E+00  0.000000000E+00  1.183991849E+02  1.183991849E+02  0.000000000E+00  0.00000E+00  9.000E+00
      21    -1     0     0   501   502  0.000000000E+00  0.000000000E+00 -3.350386351E+02  3.350386351E+02  0.000000000E+00  0.00000E+00  9.000E+00
      25     1     1     2     0     0  4.202056085E-01  8.706928972E+01 -2.343993998E+02  2.795519923E+02  1.250000000E+02  0.00000E+00  9.000E+00
      25     1     1     2     0     0  1.097464801E+01 -5.152412323E+01  1.356032572E+01  1.363233678E+02  1.250000000E+02  0.00000E+00  9.000E+00
      21     1     1     2   501   511 -1.139485362E+01 -3.554516649E+01  4.199623823E+00  3.756245985E+01  7.996802250E-07  0.00000E+00  9.000E+00
#rwgt            1           1   4.7798677608512537E-002           8      190888           0
</event>
<event>
      5   9999  3.79277E-02  1.78274E+02 -1.00000E+00  1.13497E-01
      21    -1     0     0   502   501  0.000000000E+00  0.000000000E+00  9.092686087E+02  9.092686087E+02  0.000000000E+00  0.00000E+00  9.000E+00
      21    -1     0     0   512   502  0.000000000E+00  0.000000000E+00 -1.625062694E+02  1.625062694E+02  0.000000000E+00  0.00000E+00  9.000E+00
      25     1     1     2     0     0 -1.660019927E+02 -1.550350857E+02  3.740501834E+02  4.551165555E+02  1.250000000E+02  0.00000E+00  9.000E+00
      25     1     1     2     0     0  1.469650858E+00  8.639975216E+01  4.075972307E+02  4.350029650E+02  1.250000000E+02  0.00000E+00  9.000E+00
      21     1     1     2   512   501  1.645323418E+02  6.863533357E+01 -3.488507484E+01  1.816553577E+02  4.396221379E-06  0.00000E+00  9.000E+00
#rwgt            1           1   4.3393063887971907E-002           8      190964           0
</event>
<event>
      5   9999 -3.79277E-02  1.86192E+01 -1.00000E+00  1.68974E-01
      21    -1     0     0   511   501  0.000000000E+00  0.000000000E+00  1.689382825E+02  1.689382825E+02  0.000000000E+00  0.00000E+00  9.000E+00
      21    -1     0     0   501   502  0.000000000E+00  0.000000000E+00 -3.767013528E+02  3.767013528E+02  0.000000000E+00  0.00000E+00  9.000E+00
      25     1     1     2     0     0  1.053129675E+02 -1.520841582E+02 -5.395365487E+01  2.296876340E+02  1.250000000E+02  0.00000E+00  9.000E+00
      25     1     1     2     0     0 -1.039003625E+02  1.706496881E+02 -1.705524913E+02  2.909119346E+02  1.250000000E+02  0.00000E+00  9.000E+00
      21     1     1     2   511   502 -1.412604984E+00 -1.856552987E+01  1.674307595E+01  2.504006678E+01  0.000000000E+00  0.00000E+00  9.000E+00
#rwgt            1           1  -2.5279689236815110E-002           8      191016           0
</event>
<event>
      5   9999 -3.79277E-02  1.59966E+02 -1.00000E+00  1.15297E-01
      21    -1     0     0   502   501  0.000000000E+00  0.000000000E+00  2.260649955E+03  2.260649955E+03  0.000000000E+00  0.00000E+00  9.000E+00
      21    -1     0     0   501   512  0.000000000E+00  0.000000000E+00 -2.377197012E+02  2.377197012E+02  0.000000000E+00  0.00000E+00  9.000E+00
      25     1     1     2     0     0  1.035505035E+02 -1.163013240E+02  3.319043902E+02  3.873425215E+02  1.250000000E+02  0.00000E+00  9.000E+00
      25     1     1     2     0     0 -1.721129376E+02 -2.822668193E+01  1.863486338E+03  1.875800080E+03  1.250000000E+02  0.00000E+00  9.000E+00
      21     1     1     2   502   512  6.856243408E+01  1.445280059E+02 -1.724604746E+02  2.352270544E+02  6.877043296E-06  0.00000E+00  9.000E+00
#rwgt            1           1 -0.36539555584379124                8      191148           0
</event>
<event>
      5   9999  3.79277E-02  1.63107E+01 -1.00000E+00  1.74023E-01
      21    -1     0     0   502   501  0.000000000E+00  0.000000000E+00  1.444718088E+03  1.444718088E+03  0.000000000E+00  0.00000E+00  9.000E+00
       1    -1     0     0   501     0  0.000000000E+00  0.000000000E+00 -1.402852710E+02  1.402852710E+02  0.000000000E+00  0.00000E+00  9.000E+00
      25     1     1     2     0     0  2.671978725E+01  9.675581924E+01  1.138670572E+03  1.149900564E+03  1.250000000E+02  0.00000E+00  9.000E+00
      25     1     1     2     0     0 -1.435881066E+01 -8.611411067E+01  2.804739469E+02  3.192372948E+02  1.250000000E+02  0.00000E+00  9.000E+00
       1     1     1     2   502     0 -1.236097659E+01 -1.064170857E+01 -1.147117016E+02  1.158655004E+02  5.046370146E-06  0.00000E+00  9.000E+00
#rwgt            1           1   5.5169227495666710E-002           8      191224           0
</event>
<event>
      5   9999  3.79277E-02  4.76208E+01 -1.00000E+00  1.40294E-01
      21    -1     0     0   511   501  0.000000000E+00  0.000000000E+00  1.465035962E+03  1.465035962E+03  0.000000000E+00  0.00000E+00  9.000E+00
      21    -1     0     0   501   502  0.000000000E+00  0.000000000E+00 -9.859103208E+01  9.859103208E+01  0.000000000E+00  0.00000E+00  9.000E+00
      25     1     1     2     0     0  6.955368742E+01  1.002044756E+02  4.669271335E+00  1.747153527E+02  1.250000000E+02  0.00000E+00  9.000E+00
      25     1     1     2     0     0 -1.165683379E+02 -1.077780346E+02  1.265194909E+03  1.281228879E+03  1.250000000E+02  0.00000E+00  9.000E+00
      21     1     1     2   511   502  4.701465051E+01  7.573559009E+00  9.658074917E+01  1.076827622E+02  1.348699152E-06  0.00000E+00  9.000E+00
#rwgt            1           1  0.11999787058823443                8      191407           0
</event>
<event>
      5   9999  3.79277E-02  7.88889E+01 -1.00000E+00  1.28644E-01
      21    -1     0     0   502   501  0.000000000E+00  0.000000000E+00  1.916099508E+02  1.916099508E+02  0.000000000E+00  0.00000E+00  9.000E+00
      21    -1     0     0   512   502  0.000000000E+00  0.000000000E+00 -1.013724266E+03  1.013724266E+03  0.000000000E+00  0.00000E+00  9.000E+00
      25     1     1     2     0     0 -2.771855001E+02 -2.919593776E+01 -3.814008227E+02  4.886468989E+02  1.250000000E+02  0.00000E+00  9.000E+00
      25     1     1     2     0     0  2.163787380E+02  7.945523216E+01  6.768564183E+00  2.623046047E+02  1.250000000E+02  0.00000E+00  9.000E+00
      21     1     1     2   512   501  6.080676213E+01 -5.025929440E+01 -4.474820562E+02  4.543827127E+02  0.000000000E+00  0.00000E+00  9.000E+00
#rwgt            1           1   3.9897022666178013E-002           8      191680           0
</event>
<event>
      5   9999  3.79277E-02  1.32257E+02 -1.00000E+00  1.18602E-01
      -2    -1     0     0     0   501  0.000000000E+00  0.000000000E+00  1.266093103E+03  1.266093103E+03  0.000000000E+00  0.00000E+00  9.000E+00
      21    -1     0     0   501   502  0.000000000E+00  0.000000000E+00 -6.313154786E+01  6.313154786E+01  0.000000000E+00  0.00000E+00  9.000E+00
      25     1     1     2     0     0 -2.056724594E+01 -1.168123677E+02  1.174566376E+02  2.085406497E+02  1.250000000E+02  0.00000E+00  9.000E+00
      25     1     1     2     0     0 -6.806751223E+01  1.864981911E+01  4.855816209E+02  5.063551249E+02  1.250000000E+02  0.00000E+00  9.000E+00
      -2     1     1     2     0   502  8.863475817E+01  9.816254861E+01  5.999232962E+02  6.143288758E+02  1.321449896E-05  0.00000E+00  9.000E+00
#rwgt            2           4   2.8459571743834832E-005           8      191891           0
</event>
<event>
      5   9999  3.79277E-02  3.98112E+01 -1.00000E+00  1.44968E-01
      21    -1     0     0   502   501  0.000000000E+00  0.000000000E+00  5.889820177E+02  5.889820177E+02  0.000000000E+00  0.00000E+00  9.000E+00
      21    -1     0     0   511   502  0.000000000E+00  0.000000000E+00 -7.251183306E+02  7.251183306E+02  0.000000000E+00  0.00000E+00  9.000E+00
      25     1     1     2     0     0 -2.991054264E+02  5.283551675E+02  1.354140200E+02  6.344960172E+02  1.250000000E+02  0.00000E+00  9.000E+00
      25     1     1     2     0     0  2.762729416E+02 -4.957421650E+02 -2.670067752E+02  6.395347140E+02  1.250000000E+02  0.00000E+00  9.000E+00
      21     1     1     2   511   501  2.283248480E+01 -3.261300243E+01 -4.543557768E+00  4.006961700E+01  5.297776709E-07  0.00000E+00  9.000E+00
#rwgt            1           1   3.4571328091679350E-002           8      191910           0
</event>
<event>
      5   9999  3.79277E-02  1.12937E+02 -1.00000E+00  1.21497E-01
      21    -1     0     0   502   512  0.000000000E+00  0.000000000E+00  6.136387735E+02  6.136387735E+02  0.000000000E+00  0.00000E+00  9.000E+00
      21    -1     0     0   501   502  0.000000000E+00  0.000000000E+00 -1.981946185E+03  1.981946185E+03  0.000000000E+00  0.00000E+00  9.000E+00
      25     1     1     2     0     0 -9.328256719E+01 -1.127500856E+02 -9.084446286E+02  9.286069471E+02  1.250000000E+02  0.00000E+00  9.000E+00
      25     1     1     2     0     0  1.094682954E+02  2.245215568E+02 -1.039534924E+03  1.076406566E+03  1.250000000E+02  0.00000E+00  9.000E+00
      21     1     1     2   501   512 -1.618572825E+01 -1.117714713E+02  5.796721417E+02  5.905714448E+02  1.078959322E-05  0.00000E+00  9.000E+00
#rwgt            1           1  0.22367997112939983                8      192164           0
</event>
<event>
      5   9999  3.79277E-02  5.77210E+01 -1.00000E+00  1.35608E-01
      21    -1     0     0   502   511  0.000000000E+00  0.000000000E+00  2.434546940E+02  2.434546940E+02  0.000000000E+00  0.00000E+00  9.000E+00
      21    -1     0     0   501   502  0.000000000E+00  0.000000000E+00 -2.359127719E+02  2.359127719E+02  0.000000000E+00  0.00000E+00  9.000E+00
      25     1     1     2     0     0 -1.744562151E+01 -6.156499083E+01 -1.411563158E+02  1.991097770E+02  1.250000000E+02  0.00000E+00  9.000E+00
      25     1     1     2     0     0  6.872823534E+01  8.805666077E+01  6.768920333E+01  1.807882023E+02  1.250000000E+02  0.00000E+00  9.000E+00
      21     1     1     2   501   511 -5.128261384E+01 -2.649166994E+01  8.100903465E+01  9.946948654E+01  9.536743164E-07  0.00000E+00  9.000E+00
#rwgt            1           1   1.6578527822781429E-002           8      192258           0
</event>
<event>
      5   9999  3.79277E-02  4.27972E+01 -1.00000E+00  1.43043E-01
      21    -1     0     0   502   501  0.000000000E+00  0.000000000E+00  2.530805028E+02  2.530805028E+02  0.000000000E+00  0.00000E+00  9.000E+00
      21    -1     0     0   501   512  0.000000000E+00  0.000000000E+00 -4.546281533E+02  4.546281533E+02  0.000000000E+00  0.00000E+00  9.000E+00
      25     1     1     2     0     0  4.975596586E+01 -5.382054994E+01 -2.440462773E+02  2.838237009E+02  1.250000000E+02  0.00000E+00  9.000E+00
      25     1     1     2     0     0 -5.318442322E+01  9.648019414E+01  2.002083608E+02  2.604714926E+02  1.250000000E+02  0.00000E+00  9.000E+00
      21     1     1     2   502   512  3.428457357E+00 -4.265964421E+01 -1.577097339E+02  1.634134625E+02  1.907348633E-06  0.00000E+00  9.000E+00
#rwgt            1           1   5.1105799581767246E-002           8      192373           0
</event>
<event>
      5   9999  3.79277E-02  6.40528E+01 -1.00000E+00  1.33204E-01
      21    -1     0     0   502   511  0.000000000E+00  0.000000000E+00  2.140110760E+02  2.140110760E+02  0.000000000E+00  0.00000E+00  9.000E+00
      21    -1     0     0   501   502  0.000000000E+00  0.000000000E+00 -5.821300978E+02  5.821300978E+02  0.000000000E+00  0.00000E+00  9.000E+00
      25     1     1     2     0     0 -1.348840200E+01  1.236603036E+02 -4.718119234E+02  5.036916703E+02  1.250000000E+02  0.00000E+00  9.000E+00
      25     1     1     2     0     0  7.748554099E+01 -1.263298817E+02  3.232530128E+01  1.965532324E+02  1.250000000E+02  0.00000E+00  9.000E+00
      21     1     1     2   501   511 -6.399713899E+01  2.669578134E+00  7.136760030E+01  9.589627114E+01  1.348699152E-06  0.00000E+00  9.000E+00
#rwgt            1           1   4.7678917491091086E-002           8      192694           0
</event>
<event>
      5   9999  3.79277E-02  1.86006E+01 -1.00000E+00  1.69011E-01
      21    -1     0     0   512   501  0.000000000E+00  0.000000000E+00  1.029470836E+03  1.029470836E+03  0.000000000E+00  0.00000E+00  9.000E+00
      21    -1     0     0   501   502  0.000000000E+00  0.000000000E+00 -3.883374927E+01  3.883374927E+01  0.000000000E+00  0.00000E+00  9.000E+00
      25     1     1     2     0     0  6.251122062E+01 -1.176009520E+02  3.438855480E+02  3.893840094E+02  1.250000000E+02  0.00000E+00  9.000E+00
      25     1     1     2     0     0 -8.085042178E+01  1.144937261E+02  5.820637098E+02  6.116116139E+02  1.250000000E+02  0.00000E+00  9.000E+00
      21     1     1     2   512   502  1.833920116E+01  3.107225878E+00  6.468782881E+01  6.730896187E+01  9.536743164E-07  0.00000E+00  9.000E+00
#rwgt            1           1   3.4546056406531453E-002           8      192902           0
</event>
<event>
      5   9999 -3.79277E-02  4.75437E+01 -1.00000E+00  1.40335E-01
      21    -1     0     0   502   501  0.000000000E+00  0.000000000E+00  7.235117712E+02  7.235117712E+02  0.000000000E+00  0.00000E+00  9.000E+00
      21    -1     0     0   511   502  0.000000000E+00  0.000000000E+00 -2.490411212E+02  2.490411212E+02  0.000000000E+00  0.00000E+00  9.000E+00
      25     1     1     2     0     0 -3.833649620E+02  1.438183139E+01  1.922902225E+02  4.469631538E+02  1.250000000E+02  0.00000E+00  9.000E+00
      25     1     1     2     0     0  3.548137409E+02  2.363437180E+01  2.922938810E+02  4.769822712E+02  1.250000000E+02  0.00000E+00  9.000E+00
      21     1     1     2   511   501  2.855122113E+01 -3.801620318E+01 -1.011345348E+01  4.860746727E+01  8.513246093E-07  0.00000E+00  9.000E+00
#rwgt            1           1 -0.31854476252277664                8      193002           0
</event>
<event>
      5   9999  3.79277E-02  3.22147E+01 -1.00000E+00  1.50922E-01
      21    -1     0     0   502   501  0.000000000E+00  0.000000000E+00  4.108504604E+01  4.108504604E+01  0.000000000E+00  0.00000E+00  9.000E+00
      21    -1     0     0   512   502  0.000000000E+00  0.000000000E+00 -1.044800396E+03  1.044800396E+03  0.000000000E+00  0.00000E+00  9.000E+00
      25     1     1     2     0     0  5.392401701E+01  2.137389018E+01 -1.184265413E+02  1.816988951E+02  1.250000000E+02  0.00000E+00  9.000E+00
      25     1     1     2     0     0 -5.902149828E+01 -5.318268770E+01 -7.850121426E+02  7.988623158E+02  1.250000000E+02  0.00000E+00  9.000E+00
      21     1     1     2   512   501  5.097481264E+00  3.180879752E+01 -1.002766657E+02  1.053242308E+02  2.336015456E-06  0.00000E+00  9.000E+00
#rwgt            1           1   4.7992420706874435E-002           8      193130           0
</event>
<event>
      5   9999  3.79277E-02  8.87605E+01 -1.00000E+00  1.26203E-01
      21    -1     0     0   502   501  0.000000000E+00  0.000000000E+00  1.169366464E+02  1.169366464E+02  0.000000000E+00  0.00000E+00  9.000E+00
      21    -1     0     0   511   502  0.000000000E+00  0.000000000E+00 -1.444534344E+03  1.444534344E+03  0.000000000E+00  0.00000E+00  9.000E+00
      25     1     1     2     0     0  2.807424289E+02  1.301280522E+02 -7.845584361E+02  8.525881544E+02  1.250000000E+02  0.00000E+00  9.000E+00
      25     1     1     2     0     0 -1.956442407E+02 -1.048947112E+02 -1.292387426E+02  2.856697778E+02  1.250000000E+02  0.00000E+00  9.000E+00
      21     1     1     2   511   501 -8.509818815E+01 -2.523334104E+01 -4.138005193E+02  4.232130585E+02  5.394796609E-06  0.00000E+00  9.000E+00
#rwgt            1           1   3.5062511679159677E-002           8      193252           0
</event>
<event>
      5   9999  3.79277E-02  2.07437E+01 -1.00000E+00  1.65071E-01
      21    -1     0     0   502   512  0.000000000E+00  0.000000000E+00  1.743507478E+02  1.743507478E+02  0.000000000E+00  0.00000E+00  9.000E+00
      21    -1     0     0   501   502  0.000000000E+00  0.000000000E+00 -8.049932234E+02  8.049932234E+02  0.000000000E+00  0.00000E+00  9.000E+00
      25     1     1     2     0     0  4.734402289E+01 -4.165314241E+01  1.034154783E+02  1.740580418E+02  1.250000000E+02  0.00000E+00  9.000E+00
      25     1     1     2     0     0 -5.993505245E+01  5.813853118E+01 -7.584858577E+02  7.732387055E+02  1.250000000E+02  0.00000E+00  9.000E+00
      21     1     1     2   501   512  1.259102957E+01 -1.648538877E+01  2.442790395E+01  3.204722390E+01  6.743495762E-07  0.00000E+00  9.000E+00
#rwgt            1           1   4.7775923842288757E-002           8      193435           0
</event>
<event>
      5   9999  3.79277E-02  1.91419E+01 -1.00000E+00  1.67956E-01
      21    -1     0     0   502   501  0.000000000E+00  0.000000000E+00  2.766989761E+02  2.766989761E+02  0.000000000E+00  0.00000E+00  9.000E+00
      21    -1     0     0   501   511  0.000000000E+00  0.000000000E+00 -2.731697474E+02  2.731697474E+02  0.000000000E+00  0.00000E+00  9.000E+00
      25     1     1     2     0     0  2.748835239E+01 -1.147105970E+02  1.672549417E+02  2.398194031E+02  1.250000000E+02  0.00000E+00  9.000E+00
      25     1     1     2     0     0 -4.644175425E+01  1.120308911E+02 -3.217111830E+01  1.771093955E+02  1.250000000E+02  0.00000E+00  9.000E+00
      21     1     1     2   502   511  1.895340186E+01  2.679705813E+00 -1.315545947E+02  1.329399250E+02  1.907348633E-06  0.00000E+00  9.000E+00
#rwgt            1           1   4.3134369880895369E-002           8      193565           0
</event>
<event>
      5   9999  3.79277E-02  2.01447E+02 -1.00000E+00  1.11534E-01
      21    -1     0     0   502   512  0.000000000E+00  0.000000000E+00  3.305395149E+02  3.305395149E+02  0.000000000E+00  0.00000E+00  9.000E+00
      21    -1     0     0   501   502  0.000000000E+00  0.000000000E+00 -3.761731531E+02  3.761731531E+02  0.000000000E+00  0.00000E+00  9.000E+00
      25     1     1     2     0     0 -1.143179688E+02  6.325079457E+01  1.008504320E+02  2.070388144E+02  1.250000000E+02  0.00000E+00  9.000E+00
      25     1     1     2     0     0  7.151281199E+00  1.073255280E+02 -2.288179775E+02  2.820506632E+02  1.250000000E+02  0.00000E+00  9.000E+00
      21     1     1     2   501   512  1.071666876E+02 -1.705763225E+02  8.233390721E+01  2.176231905E+02  3.303624740E-06  0.00000E+00  9.000E+00
#rwgt            1           1   4.0639246833704692E-002           8      193718           0
</event>
<event>
      5   9999  3.79277E-02  2.80026E+01 -1.00000E+00  1.55148E-01
      21    -1     0     0   502   501  0.000000000E+00  0.000000000E+00  1.237211657E+02  1.237211657E+02  0.000000000E+00  0.00000E+00  9.000E+00
       2    -1     0     0   501     0  0.000000000E+00  0.000000000E+00 -5.410096695E+02  5.410096695E+02  0.000000000E+00  0.00000E+00  9.000E+00
      25     1     1     2     0     0 -1.514495035E+01 -8.159040628E+01 -8.793866345E+01  1.739096675E+02  1.250000000E+02  0.00000E+00  9.000E+00
      25     1     1     2     0     0  3.599132985E+01  6.289348233E+01  1.506625931E+01  1.452685724E+02  1.250000000E+02  0.00000E+00  9.000E+00
       2     1     1     2   502     0 -2.084637950E+01  1.869692395E+01 -3.444160997E+02  3.455525954E+02  3.814697266E-06  0.00000E+00  9.000E+00
#rwgt            1           1   4.3330793803896740E-002           8      193820           0
</event>
<event>
      5   9999  3.79277E-02  3.39892E+01 -1.00000E+00  1.49367E-01
      21    -1     0     0   502   501  0.000000000E+00  0.000000000E+00  7.111896725E+02  7.111896725E+02  0.000000000E+00  0.00000E+00  9.000E+00
      21    -1     0     0   501   511  0.000000000E+00  0.000000000E+00 -1.273708311E+02  1.273708311E+02  0.000000000E+00  0.00000E+00  9.000E+00
      25     1     1     2     0     0 -1.062165294E+02 -1.053880726E+02  4.759164093E+02  5.143053817E+02  1.250000000E+02  0.00000E+00  9.000E+00
      25     1     1     2     0     0  8.861951905E+01  1.344674187E+02  1.619824663E+02  2.603809233E+02  1.250000000E+02  0.00000E+00  9.000E+00
      21     1     1     2   502   511  1.759701039E+01 -2.907934615E+01 -5.408003416E+01  6.387419856E+01  9.536743164E-07  0.00000E+00  9.000E+00
#rwgt            1           1   3.1622031503554533E-002           8      193875           0
</event>
<event>
      5   9999  3.79277E-02  3.68982E+01 -1.00000E+00  1.47048E-01
      21    -1     0     0   502   501  0.000000000E+00  0.000000000E+00  3.506750487E+02  3.506750487E+02  0.000000000E+00  0.00000E+00  9.000E+00
      21    -1     0     0   501   512  0.000000000E+00  0.000000000E+00 -3.445415841E+02  3.445415841E+02  0.000000000E+00  0.00000E+00  9.000E+00
      25     1     1     2     0     0  8.737210028E+01  2.225083259E+02  1.506851613E+02  3.089900595E+02  1.250000000E+02  0.00000E+00  9.000E+00
      25     1     1     2     0     0 -5.066705494E+01 -2.187375012E+02 -2.163166955E+01  2.578879098E+02  1.250000000E+02  0.00000E+00  9.000E+00
      21     1     1     2   502   512 -3.670504534E+01 -3.770824721E+00 -1.229200272E+02  1.283386635E+02  1.907348633E-06  0.00000E+00  9.000E+00
#rwgt            1           1   4.7221188186811473E-002           8      193977           0
</event>
<event>
      5   9999 -3.79277E-02  3.57933E+01 -1.00000E+00  1.47898E-01
      21    -1     0     0   502   501  0.000000000E+00  0.000000000E+00  1.148039446E+03  1.148039446E+03  0.000000000E+00  0.00000E+00  9.000E+00
      21    -1     0     0   511   502  0.000000000E+00  0.000000000E+00 -1.643110683E+02  1.643110683E+02  0.000000000E+00  0.00000E+00  9.000E+00
      25     1     1     2     0     0 -2.957737917E+02  2.622680188E+02  4.400234823E+02  6.045761445E+02  1.250000000E+02  0.00000E+00  9.000E+00
      25     1     1     2     0     0  2.691655219E+02 -2.862087354E+02  5.245099440E+02  6.671590513E+02  1.250000000E+02  0.00000E+00  9.000E+00
      21     1     1     2   511   501  2.660826975E+01  2.394071658E+01  1.919495120E+01  4.061531831E+01  3.371747881E-07  0.00000E+00  9.000E+00
#rwgt            1           1 -0.32591583725134249                8      194313           0
</event>
<event>
      5   9999  3.79277E-02  3.69060E+01 -1.00000E+00  1.47042E-01
      21    -1     0     0   502   501  0.000000000E+00  0.000000000E+00  7.205559468E+01  7.205559468E+01  0.000000000E+00  0.00000E+00  9.000E+00
      21    -1     0     0   512   502  0.000000000E+00  0.000000000E+00 -6.695048413E+02  6.695048413E+02  0.000000000E+00  0.00000E+00  9.000E+00
      25     1     1     2     0     0 -1.597710234E+02  2.321397599E+01 -2.330641573E+02  3.098541109E+02  1.250000000E+02  0.00000E+00  9.000E+00
      25     1     1     2     0     0  1.357493203E+02 -5.123200034E+01 -2.761132210E+02  3.360299192E+02  1.250000000E+02  0.00000E+00  9.000E+00
      21     1     1     2   512   501  2.402170300E+01  2.801802436E+01 -8.827186830E+01  9.567640586E+01  2.132480600E-06  0.00000E+00  9.000E+00
#rwgt            1           1   3.2344196992898790E-002           8      194549           0
</event>
<event>
      5   9999  3.79277E-02  4.88342E+01 -1.00000E+00  1.39663E-01
      21    -1     0     0   502   501  0.000000000E+00  0.000000000E+00  3.989795176E+01  3.989795176E+01  0.000000000E+00  0.00000E+00  9.000E+00
       2    -1     0     0   501     0  0.000000000E+00  0.000000000E+00 -2.045080885E+03  2.045080885E+03  0.000000000E+00  0.00000E+00  9.000E+00
      25     1     1     2     0     0 -1.989600388E+01  1.554590234E+02 -1.094590329E+03  1.112796633E+03  1.250000000E+02  0.00000E+00  9.000E+00
      25     1     1     2     0     0  2.670163292E+01 -1.071013694E+02 -2.021386671E+02  2.620471737E+02  1.250000000E+02  0.00000E+00  9.000E+00
       2     1     1     2   502     0 -6.805629031E+00 -4.835765397E+01 -7.084539369E+02  7.101350294E+02  0.000000000E+00  0.00000E+00  9.000E+00
#rwgt            1           1   4.1271469945917481E-002           8      194621           0
</event>
<event>
      5   9999  3.79277E-02  6.35455E+01 -1.00000E+00  1.33384E-01
      21    -1     0     0   502   511  0.000000000E+00  0.000000000E+00  8.646999858E+02  8.646999858E+02  0.000000000E+00  0.00000E+00  9.000E+00
      21    -1     0     0   501   502  0.000000000E+00  0.000000000E+00 -7.834794600E+02  7.834794600E+02  0.000000000E+00  0.00000E+00  9.000E+00
      25     1     1     2     0     0 -1.598780849E+02 -6.989519293E+01 -4.583181972E+02  5.060898240E+02  1.250000000E+02  0.00000E+00  9.000E+00
      25     1     1     2     0     0  9.730008147E+01  5.884866738E+01 -2.762467878E+02  3.238329188E+02  1.250000000E+02  0.00000E+00  9.000E+00
      21     1     1     2   501   511  6.257800348E+01  1.104652555E+01  8.157855109E+02  8.182567030E+02  1.078959322E-05  0.00000E+00  9.000E+00
#rwgt            1           1   3.5034831074972989E-002           8      194746           0
</event>
<event>
      5   9999  3.79277E-02  7.49848E+01 -1.00000E+00  1.29725E-01
      21    -1     0     0   512   501  0.000000000E+00  0.000000000E+00  6.735112093E+01  6.735112093E+01  0.000000000E+00  0.00000E+00  9.000E+00
      21    -1     0     0   501   502  0.000000000E+00  0.000000000E+00 -1.040649046E+03  1.040649046E+03  0.000000000E+00  0.00000E+00  9.000E+00
      25     1     1     2     0     0 -1.295663453E+02  1.132681198E+02 -4.589183463E+02  5.058143468E+02  1.250000000E+02  0.00000E+00  9.000E+00
      25     1     1     2     0     0  7.828615922E+01 -1.679770374E+02 -4.534922892E+02  5.055939717E+02  1.250000000E+02  0.00000E+00  9.000E+00
      21     1     1     2   512   502  5.128018612E+01  5.470891762E+01 -6.088728940E+01  9.659184834E+01  1.507891493E-06  0.00000E+00  9.000E+00
#rwgt            1           1   4.5313674293970346E-002           8      194881           0
</event>
<event>
      5   9999  3.79277E-02  9.22644E+01 -1.00000E+00  1.25421E-01
      21    -1     0     0   502   501  0.000000000E+00  0.000000000E+00  1.806776819E+02  1.806776819E+02  0.000000000E+00  0.00000E+00  9.000E+00
      21    -1     0     0   501   511  0.000000000E+00  0.000000000E+00 -2.378298098E+02  2.378298098E+02  0.000000000E+00  0.00000E+00  9.000E+00
      25     1     1     2     0     0 -4.188920383E+00  9.514848063E+01 -7.131249459E+01  1.725724552E+02  1.250000000E+02  0.00000E+00  9.000E+00
      25     1     1     2     0     0  1.847935730E+01 -3.997453524E+00  6.331848587E+01  1.413919974E+02  1.250000000E+02  0.00000E+00  9.000E+00
      21     1     1     2   502   511 -1.429043692E+01 -9.115102711E+01 -4.915811916E+01  1.045430390E+02  1.168007728E-06  0.00000E+00  9.000E+00
#rwgt            1           1   6.1942611994442565E-002           8      195003           0
</event>
<event>
      5   9999  3.79277E-02  4.42657E+00 -1.00000E+00  2.53514E-01
      21    -1     0     0   502   501  0.000000000E+00  0.000000000E+00  3.426227227E+01  3.426227227E+01  0.000000000E+00  0.00000E+00  9.000E+00
      21    -1     0     0   512   502  0.000000000E+00  0.000000000E+00 -1.112876204E+03  1.112876204E+03  0.000000000E+00  0.00000E+00  9.000E+00
      25     1     1     2     0     0 -5.514514209E+01  7.841769408E+01 -2.065756745E+02  2.597861250E+02  1.250000000E+02  0.00000E+00  9.000E+00
      25     1     1     2     0     0  5.472986588E+01 -8.282474029E+01 -8.528954142E+02  8.677043756E+02  1.250000000E+02  0.00000E+00  9.000E+00
      21     1     1     2   512   501  4.152762108E-01  4.407046219E+00 -1.914284309E+01  1.964797578E+01  3.371747881E-07  0.00000E+00  9.000E+00
#rwgt            1           1   3.8371517009769568E-002           8      195096           0
</event>
<event>
      5   9999  3.79277E-02  4.73062E+01 -1.00000E+00  1.40462E-01
      21    -1     0     0   502   501  0.000000000E+00  0.000000000E+00  9.422129818E+02  9.422129818E+02  0.000000000E+00  0.00000E+00  9.000E+00
      21    -1     0     0   511   502  0.000000000E+00  0.000000000E+00 -3.799034034E+02  3.799034034E+02  0.000000000E+00  0.00000E+00  9.000E+00
      25     1     1     2     0     0  6.523427461E+01  2.831223257E+01  5.882728248E+01  1.553793495E+02  1.250000000E+02  0.00000E+00  9.000E+00
      25     1     1     2     0     0 -9.821538646E+01  5.601181595E+00  8.257927717E+02  8.409734462E+02  1.250000000E+02  0.00000E+00  9.000E+00
      21     1     1     2   511   501  3.298111184E+01 -3.391341416E+01 -3.223104758E+02  3.257635894E+02  0.000000000E+00  0.00000E+00  9.000E+00
#rwgt            1           1   2.8281214993583114E-002           8      195583           0
</event>
<event>
      5   9999  3.79277E-02  1.53873E+02 -1.00000E+00  1.15957E-01
      21    -1     0     0   502   501  0.000000000E+00  0.000000000E+00  7.767987597E+01  7.767987597E+01  0.000000000E+00  0.00000E+00  9.000E+00
       2    -1     0     0   501     0  0.000000000E+00  0.000000000E+00 -4.045624099E+03  4.045624099E+03  0.000000000E+00  0.00000E+00  9.000E+00
      25     1     1     2     0     0 -9.696611646E+01 -2.181746539E+02 -2.566615698E+02  3.721596012E+02  1.250000000E+02  0.00000E+00  9.000E+00
      25     1     1     2     0     0 -2.392267013E+01  1.229759685E+02 -4.135854302E+02  4.498591903E+02  1.250000000E+02  0.00000E+00  9.000E+00
       2     1     1     2   502     0  1.208887866E+02  9.519868538E+01 -3.297697223E+03  3.301285184E+03  4.315837288E-05  0.00000E+00  9.000E+00
#rwgt            1           1   4.6538924877936101E-002           8      195729           0
</event>
<event>
      5   9999  3.79277E-02  3.27615E+01 -1.00000E+00  1.50430E-01
      21    -1     0     0   502   501  0.000000000E+00  0.000000000E+00  8.101324392E+01  8.101324392E+01  0.000000000E+00  0.00000E+00  9.000E+00
       2    -1     0     0   501     0  0.000000000E+00  0.000000000E+00 -5.780271686E+02  5.780271686E+02  0.000000000E+00  0.00000E+00  9.000E+00
      25     1     1     2     0     0 -1.281646432E+02 -5.482927775E+01 -1.058006947E+02  2.150609506E+02  1.250000000E+02  0.00000E+00  9.000E+00
      25     1     1     2     0     0  9.976387914E+01  3.849785699E+01 -2.518175687E+02  3.007856454E+02  1.250000000E+02  0.00000E+00  9.000E+00
       2     1     1     2   502     0  2.840076411E+01  1.633142076E+01 -1.393956612E+02  1.431938164E+02  0.000000000E+00  0.00000E+00  9.000E+00
#rwgt            1           1   3.8374877877324930E-002           8      195793           0
</event>
<event>
      5   9999  3.79277E-02  2.03748E+01 -1.00000E+00  1.65707E-01
      21    -1     0     0   511   501  0.000000000E+00  0.000000000E+00  4.938470577E+02  4.938470577E+02  0.000000000E+00  0.00000E+00  9.000E+00
      21    -1     0     0   501   502  0.000000000E+00  0.000000000E+00 -1.922556252E+02  1.922556252E+02  0.000000000E+00  0.00000E+00  9.000E+00
      25     1     1     2     0     0  2.530389763E+02 -6.990208509E+01  1.810250349E+02  3.425056032E+02  1.250000000E+02  0.00000E+00  9.000E+00
      25     1     1     2     0     0 -2.339583356E+02  6.275640007E+01  5.919716179E+01  2.789339931E+02  1.250000000E+02  0.00000E+00  9.000E+00
      21     1     1     2   511   502 -1.908064061E+01  7.145685025E+00  6.136923575E+01  6.466308651E+01  1.168007728E-06  0.00000E+00  9.000E+00
#rwgt            1           1   3.0931491979874378E-002           8      195899           0
</event>
<event>
      5   9999  3.79277E-02  5.40116E+01 -1.00000E+00  1.37190E-01
      21    -1     0     0   512   501  0.000000000E+00  0.000000000E+00  1.028251990E+03  1.028251990E+03  0.000000000E+00  0.00000E+00  9.000E+00
      21    -1     0     0   501   502  0.000000000E+00  0.000000000E+00 -7.542531069E+01  7.542531069E+01  0.000000000E+00  0.00000E+00  9.000E+00
      25     1     1     2     0     0  1.413743552E+02 -1.074294825E+02  6.271936569E+02  6.637203366E+02  1.250000000E+02  0.00000E+00  9.000E+00
      25     1     1     2     0     0 -9.199113782E+01  8.555358526E+01  9.105870797E+01  1.992447582E+02  1.250000000E+02  0.00000E+00  9.000E+00
      21     1     1     2   512   502 -4.938321733E+01  2.187589725E+01  2.345743149E+02  2.407122062E+02  0.000000000E+00  0.00000E+00  9.000E+00
#rwgt            1           1   3.4115738056063646E-002           8      195993           0
</event>
<event>
      5   9999  3.79277E-02  4.42623E+01 -1.00000E+00  1.42165E-01
      21    -1     0     0   502   511  0.000000000E+00  0.000000000E+00  2.981613156E+02  2.981613156E+02  0.000000000E+00  0.00000E+00  9.000E+00
      21    -1     0     0   501   502  0.000000000E+00  0.000000000E+00 -2.401477063E+02  2.401477063E+02  0.000000000E+00  0.00000E+00  9.000E+00
      25     1     1     2     0     0  7.352031062E+01 -1.025611708E+02  1.832305808E+02  2.551910570E+02  1.250000000E+02  0.00000E+00  9.000E+00
      25     1     1     2     0     0 -3.188417128E+01  1.175806754E+02 -1.519399578E+02  2.314142744E+02  1.250000000E+02  0.00000E+00  9.000E+00
      21     1     1     2   501   511 -4.163613934E+01 -1.501950463E+01  2.672298626E+01  5.170369052E+01  5.840038640E-07  0.00000E+00  9.000E+00
#rwgt            1           1   3.7807095328019888E-002           8      196040           0
</event>
<event>
      5   9999  3.79277E-02  1.38088E+02 -1.00000E+00  1.17836E-01
      21    -1     0     0   502   512  0.000000000E+00  0.000000000E+00  6.931166582E+02  6.931166582E+02  0.000000000E+00  0.00000E+00  9.000E+00
      21    -1     0     0   501   502  0.000000000E+00  0.000000000E+00 -7.070376368E+02  7.070376368E+02  0.000000000E+00  0.00000E+00  9.000E+00
      25     1     1     2     0     0  1.207235580E+02 -4.629099372E+01 -4.871281932E+02  5.192647785E+02  1.250000000E+02  0.00000E+00  9.000E+00
      25     1     1     2     0     0 -1.279029317E+02 -9.161014804E+01 -1.447785536E+02  2.476639028E+02  1.250000000E+02  0.00000E+00  9.000E+00
      21     1     1     2   501   512  7.179373698E+00  1.379011418E+02  6.179857682E+02  6.332256138E+02  7.629394531E-06  0.00000E+00  9.000E+00
#rwgt            1           1   2.8176362148930777E-002           8      196193           0
</event>
<event>
      5   9999  3.79277E-02  4.93908E+01 -1.00000E+00  1.39380E-01
       1    -1     0     0   502     0  0.000000000E+00  0.000000000E+00  6.863558319E+02  6.863558319E+02  0.000000000E+00  0.00000E+00  9.000E+00
      21    -1     0     0   501   502  0.000000000E+00  0.000000000E+00 -1.836617478E+02  1.836617478E+02  0.000000000E+00  0.00000E+00  9.000E+00
      25     1     1     2     0     0  1.168601661E+02 -8.556206942E+01  5.390616225E+01  1.987662961E+02  1.250000000E+02  0.00000E+00  9.000E+00
      25     1     1     2     0     0 -1.631873870E+02  1.026863854E+02  1.032312451E+01  2.300134429E+02  1.250000000E+02  0.00000E+00  9.000E+00
       1     1     1     2   501     0  4.632722090E+01 -1.712431603E+01  4.384647973E+02  4.412378407E+02  0.000000000E+00  0.00000E+00  9.000E+00
#rwgt            1           1   3.4250266531817619E-002           8      196374           0
</event>
<event>
      5   9999 -3.79277E-02  1.14214E+02 -1.00000E+00  1.21286E-01
      21    -1     0     0   511   501  0.000000000E+00  0.000000000E+00  1.534276947E+02  1.534276947E+02  0.000000000E+00  0.00000E+00  9.000E+00
      21    -1     0     0   501   502  0.000000000E+00  0.000000000E+00 -7.971996121E+02  7.971996121E+02  0.000000000E+00  0.00000E+00  9.000E+00
      25     1     1     2     0     0  4.683888215E+01 -5.036503075E+01 -4.790667536E+02  4.998604522E+02  1.250000000E+02  0.00000E+00  9.000E+00
      25     1     1     2     0     0  6.505438879E+01  7.327403868E+01 -2.582175646E+02  3.031541999E+02  1.250000000E+02  0.00000E+00  9.000E+00
      21     1     1     2   511   502 -1.118932709E+02 -2.290900793E+01  9.351240081E+01  1.476126547E+02  4.264961200E-06  0.00000E+00  9.000E+00
#rwgt            1           1 -0.42018864546246526                8      196475           0
</event>
<event>
      5   9999  3.79277E-02  5.44747E+01 -1.00000E+00  1.36984E-01
      21    -1     0     0   502   501  0.000000000E+00  0.000000000E+00  6.028056018E+01  6.028056018E+01  0.000000000E+00  0.00000E+00  9.000E+00
      21    -1     0     0   512   502  0.000000000E+00  0.000000000E+00 -1.307601009E+03  1.307601009E+03  0.000000000E+00  0.00000E+00  9.000E+00
      25     1     1     2     0     0 -1.292948570E+02 -3.218182077E+01 -1.637677346E+02  2.453521969E+02  1.250000000E+02  0.00000E+00  9.000E+00
      25     1     1     2     0     0  1.532171317E+02 -1.675914826E+01 -5.237960290E+02  5.601282340E+02  1.250000000E+02  0.00000E+00  9.000E+00
      21     1     1     2   512   501 -2.392227470E+01  4.894096904E+01 -5.597566849E+02  5.624011380E+02  1.078959322E-05  0.00000E+00  9.000E+00
#rwgt            1           1   3.8435241302902108E-002           8      196564           0
</event>
<event>
      5   9999  3.79277E-02  3.07693E+01 -1.00000E+00  1.52280E-01
      21    -1     0     0   511   501  0.000000000E+00  0.000000000E+00  5.784284659E+02  5.784284659E+02  0.000000000E+00  0.00000E+00  9.000E+00
      21    -1     0     0   501   502  0.000000000E+00  0.000000000E+00 -7.465218667E+01  7.465218667E+01  0.000000000E+00  0.00000E+00  9.000E+00
      25     1     1     2     0     0  5.784362990E+01  3.209929291E+01  2.289550607E+01  1.432670734E+02  1.250000000E+02  0.00000E+00  9.000E+00
      25     1     1     2     0     0 -3.202176360E+01 -4.883192009E+01  3.760414135E+02  4.005522368E+02  1.250000000E+02  0.00000E+00  9.000E+00
      21     1     1     2   511   502 -2.582186630E+01  1.673262719E+01  1.048393597E+02  1.092613424E+02  0.000000000E+00  0.00000E+00  9.000E+00
#rwgt            1           1   3.8199019651953513E-002           8      196656           0
</event>
<event>
      5   9999  3.79277E-02  8.45682E+00 -1.00000E+00  2.04566E-01
      21    -1     0     0   502   512  0.000000000E+00  0.000000000E+00  3.429051936E+02  3.429051936E+02  0.000000000E+00  0.00000E+00  9.000E+00
      21    -1     0     0   501   502  0.000000000E+00  0.000000000E+00 -7.122884248E+02  7.122884248E+02  0.000000000E+00  0.00000E+00  9.000E+00
      25     1     1     2     0     0  2.569974173E+02  8.279663239E+01 -5.910419935E+02  6.617088430E+02  1.250000000E+02  0.00000E+00  9.000E+00
      25     1     1     2     0     0 -2.605059480E+02 -9.049130394E+01  1.827310712E+02  3.536490767E+02  1.250000000E+02  0.00000E+00  9.000E+00
      21     1     1     2   501   512  3.508530746E+00  7.694671553E+00  3.892769107E+01  3.983569869E+01  4.768371582E-07  0.00000E+00  9.000E+00
#rwgt            1           1  0.15668648846949479                8      196782           0
</event>
<event>
      5   9999  3.79277E-02  6.18784E+01 -1.00000E+00  1.33992E-01
      21    -1     0     0   502   501  0.000000000E+00  0.000000000E+00  9.442926605E+01  9.442926605E+01  0.000000000E+00  0.00000E+00  9.000E+00
       2    -1     0     0   501     0  0.000000000E+00  0.000000000E+00 -5.995738887E+02  5.995738887E+02  0.000000000E+00  0.00000E+00  9.000E+00
      25     1     1     2     0     0  6.043561217E+01 -9.703998405E+01 -2.721911959E+02  3.205967387E+02  1.250000000E+02  0.00000E+00  9.000E+00
      25     1     1     2     0     0 -1.195805995E+02  7.885180990E+01 -7.607783788E+01  2.047680764E+02  1.250000000E+02  0.00000E+00  9.000E+00
       2     1     1     2   502     0  5.914498737E+01  1.818817415E+01 -1.568755888E+02  1.686383396E+02  1.907348633E-06  0.00000E+00  9.000E+00
#rwgt            1           1   4.0495644297549420E-002           8      197191           0
</event>
<event>
      5   9999  3.79277E-02  9.83626E+01 -1.00000E+00  1.24151E-01
      21    -1     0     0   502   511  0.000000000E+00  0.000000000E+00  1.834342666E+02  1.834342666E+02  0.000000000E+00  0.00000E+00  9.000E+00
      21    -1     0     0   501   502  0.000000000E+00  0.000000000E+00 -1.231723425E+03  1.231723425E+03  0.000000000E+00  0.00000E+00  9.000E+00
      25     1     1     2     0     0 -1.359740197E+02  7.715689487E+01  9.309701379E+00  2.003841087E+02  1.250000000E+02  0.00000E+00  9.000E+00
      25     1     1     2     0     0  3.998255220E+01 -9.862418581E+01 -1.096703822E+03  1.108922724E+03  1.250000000E+02  0.00000E+00  9.000E+00
      21     1     1     2   501   511  9.599146754E+01  2.146729094E+01  3.910496176E+01  1.058508595E+02  4.768371582E-07  0.00000E+00  9.000E+00
#rwgt            1           1   6.0154027804937782E-002           8      197258           0
</event>
<event>
      5   9999  3.79277E-02  2.97347E+01 -1.00000E+00  1.53308E-01
       1    -1     0     0   502     0  0.000000000E+00  0.000000000E+00  3.287669241E+02  3.287669241E+02  0.000000000E+00  0.00000E+00  9.000E+00
      21    -1     0     0   501   502  0.000000000E+00  0.000000000E+00 -5.809412792E+02  5.809412792E+02  0.000000000E+00  0.00000E+00  9.000E+00
      25     1     1     2     0     0  4.207072589E+01  1.503104708E+02 -1.672233988E+02  2.606757540E+02  1.250000000E+02  0.00000E+00  9.000E+00
      25     1     1     2     0     0 -1.391867317E+01 -1.407390115E+02 -3.418080916E+02  3.904599471E+02  1.250000000E+02  0.00000E+00  9.000E+00
       1     1     1     2   501     0 -2.815205273E+01 -9.571459291E+00  2.568571353E+02  2.585725022E+02  3.814697266E-06  0.00000E+00  9.000E+00
#rwgt            1           1   4.0824433490152759E-002           8      197427           0
</event>
<event>
      5   9999  3.79277E-02  2.45756E+01 -1.00000E+00  1.59310E-01
      21    -1     0     0   511   501  0.000000000E+00  0.000000000E+00  8.411088798E+01  8.411088798E+01  0.000000000E+00  0.00000E+00  9.000E+00
      21    -1     0     0   501   502  0.000000000E+00  0.000000000E+00 -4.751102967E+02  4.751102967E+02  0.000000000E+00  0.00000E+00  9.000E+00
      25     1     1     2     0     0 -8.120445096E+01  9.082466708E+01 -1.874433097E+02  2.561313674E+02  1.250000000E+02  0.00000E+00  9.000E+00
      25     1     1     2     0     0  7.010451961E+01 -1.127506929E+02 -2.095606351E+02  2.777913285E+02  1.250000000E+02  0.00000E+00  9.000E+00
      21     1     1     2   511   502  1.109993135E+01  2.192602578E+01  6.004536085E+00  2.529848881E+01  4.129530925E-07  0.00000E+00  9.000E+00
#rwgt            1           1   3.8860890287455693E-002           8      197568           0
</event>
<event>
      5   9999  3.79277E-02  1.09047E+02 -1.00000E+00  1.22160E-01
      21    -1     0     0   502   512  0.000000000E+00  0.000000000E+00  8.532535196E+02  8.532535196E+02  0.000000000E+00  0.00000E+00  9.000E+00
      21    -1     0     0   501   502  0.000000000E+00  0.000000000E+00 -1.615319233E+02  1.615319233E+02  0.000000000E+00  0.00000E+00  9.000E+00
      25     1     1     2     0     0  1.322610253E+02  3.830664099E+01 -1.671911592E+01  1.867214674E+02  1.250000000E+02  0.00000E+00  9.000E+00
      25     1     1     2     0     0 -8.365514631E+01  5.930808403E+01  6.307203536E+01  1.735474401E+02  1.250000000E+02  0.00000E+00  9.000E+00
      21     1     1     2   501   512 -4.860587894E+01 -9.761472502E+01  6.453686768E+02  6.545165353E+02  1.078959322E-05  0.00000E+00  9.000E+00
#rwgt            1           1   4.2060635261966087E-002           8      197743           0
</event>
<event>
      5   9999  3.79277E-02  3.22275E+01 -1.00000E+00  1.50910E-01
      21    -1     0     0   511   501  0.000000000E+00  0.000000000E+00  2.291965676E+02  2.291965676E+02  0.000000000E+00  0.00000E+00  9.000E+00
      21    -1     0     0   501   502  0.000000000E+00  0.000000000E+00 -3.627742844E+02  3.627742844E+02  0.000000000E+00  0.00000E+00  9.000E+00
      25     1     1     2     0     0  2.228549632E+00 -1.662992055E+02  9.979732159E+01  2.307485592E+02  1.250000000E+02  0.00000E+00  9.000E+00
      25     1     1     2     0     0  1.168267960E+01  1.953696422E+02 -2.330356350E+02  3.289929927E+02  1.250000000E+02  0.00000E+00  9.000E+00
      21     1     1     2   511   502 -1.391122923E+01 -2.907043674E+01 -3.394033389E-01  3.222930011E+01  6.293646158E-07  0.00000E+00  9.000E+00
#rwgt            1           1   3.8851074082365739E-002           8      197810           0
</event>
<event>
      5   9999  3.79277E-02  4.93085E+01 -1.00000E+00  1.39422E-01
      21    -1     0     0   502   501  0.000000000E+00  0.000000000E+00  3.813494183E+01  3.813494183E+01  0.000000000E+00  0.00000E+00  9.000E+00
      21    -1     0     0   512   502  0.000000000E+00  0.000000000E+00 -1.269722973E+03  1.269722973E+03  0.000000000E+00  0.00000E+00  9.000E+00
      25     1     1     2     0     0 -4.965470961E+01  1.280865824E+02 -6.801208569E+02  7.050256327E+02  1.250000000E+02  0.00000E+00  9.000E+00
      25     1     1     2     0     0  6.014462881E-01 -1.330967823E+02 -3.425601826E+02  3.881849996E+02  1.250000000E+02  0.00000E+00  9.000E+00
      21     1     1     2   512   501  4.905326332E+01  5.010199859E+00 -2.089069914E+02  2.146472823E+02  0.000000000E+00  0.00000E+00  9.000E+00
#rwgt            1           1   4.6152076004984909E-002           8      197933           0
</event>
<event>
      5   9999  3.79277E-02  8.81355E+01 -1.00000E+00  1.26346E-01
      21    -1     0     0   502   501  0.000000000E+00  0.000000000E+00  3.287470187E+02  3.287470187E+02  0.000000000E+00  0.00000E+00  9.000E+00
      21    -1     0     0   501   511  0.000000000E+00  0.000000000E+00 -1.772189775E+02  1.772189775E+02  0.000000000E+00  0.00000E+00  9.000E+00
      25     1     1     2     0     0  4.333678636E+01  9.916370967E+01  5.690720624E+01  1.748569372E+02  1.250000000E+02  0.00000E+00  9.000E+00
      25     1     1     2     0     0 -1.244499920E+02 -1.336385280E+02  9.993209832E+01  2.428136754E+02  1.250000000E+02  0.00000E+00  9.000E+00
      21     1     1     2   502   511  8.111320567E+01  3.447481835E+01 -5.311263326E+00  8.829538353E+01  2.232589817E-06  0.00000E+00  9.000E+00
#rwgt            1           1   4.5602755267235930E-002           8      198078           0
</event>
<event>
      5   9999  3.79277E-02  9.82311E+01 -1.00000E+00  1.24178E-01
      21    -1     0     0   502   501  0.000000000E+00  0.000000000E+00  2.728059826E+01  2.728059826E+01  0.000000000E+00  0.00000E+00  9.000E+00
       2    -1     0     0   501     0  0.000000000E+00  0.000000000E+00 -3.275260812E+03  3.275260812E+03  0.000000000E+00  0.00000E+00  9.000E+00
      25     1     1     2     0     0  2.164480088E+01 -1.503802592E+02 -9.542215251E+02  9.742927890E+02  1.250000000E+02  0.00000E+00  9.000E+00
      25     1     1     2     0     0 -7.804775539E-02  2.462145712E+02 -1.263678619E+03  1.293495371E+03  1.250000000E+02  0.00000E+00  9.000E+00
       2     1     1     2   502     0 -2.156675312E+01 -9.583431201E+01 -1.030080069E+03  1.034753250E+03  1.525878906E-05  0.00000E+00  9.000E+00
#rwgt            1           1   2.8164354397443924E-002           8      198157           0
</event>
<event>
      5   9999  3.79277E-02  7.72641E+01 -1.00000E+00  1.29085E-01
      21    -1     0     0   511   501  0.000000000E+00  0.000000000E+00  4.133062225E+02  4.133062225E+02  0.000000000E+00  0.00000E+00  9.000E+00
      21    -1     0     0   501   502  0.000000000E+00  0.000000000E+00 -6.946225504E+02  6.946225504E+02  0.000000000E+00  0.00000E+00  9.000E+00
      25     1     1     2     0     0  2.041447606E+02  4.356494842E+01 -2.956265912E+02  3.828747438E+02  1.250000000E+02  0.00000E+00  9.000E+00
      25     1     1     2     0     0 -2.064362081E+02  3.366514256E+01 -3.085011342E+02  3.931249161E+02  1.250000000E+02  0.00000E+00  9.000E+00
      21     1     1     2   511   502  2.291447467E+00 -7.723009098E+01  3.228113975E+02  3.319291130E+02  0.000000000E+00  0.00000E+00  9.000E+00
#rwgt            1           1   3.8540442715687968E-002           8      198376           0
</event>
<event>
      5   9999  3.79277E-02  5.36430E+01 -1.00000E+00  1.37355E-01
      21    -1     0     0   502   501  0.000000000E+00  0.000000000E+00  8.947825060E+02  8.947825060E+02  0.000000000E+00  0.00000E+00  9.000E+00
      21    -1     0     0   501   512  0.000000000E+00  0.000000000E+00 -2.877863836E+02  2.877863836E+02  0.000000000E+00  0.00000E+00  9.000E+00
      25     1     1     2     0     0  1.117351315E+02 -2.652342257E+02  5.788988272E+02  6.584700344E+02  1.250000000E+02  0.00000E+00  9.000E+00
      25     1     1     2     0     0 -1.395686752E+02  3.110912331E+02  1.484552285E+02  3.923278288E+02  1.250000000E+02  0.00000E+00  9.000E+00
      21     1     1     2   502   512  2.783354374E+01 -4.585700741E+01 -1.203579333E+02  1.317710264E+02  2.336015456E-06  0.00000E+00  9.000E+00
#rwgt            1           1  0.12930985025114503                8      198525           0
</event>
<event>
      5   9999  3.79277E-02  2.04002E+02 -1.00000E+00  1.11336E-01
      21    -1     0     0   511   501  0.000000000E+00  0.000000000E+00  8.391395257E+02  8.391395257E+02  0.000000000E+00  0.00000E+00  9.000E+00
      21    -1     0     0   501   502  0.000000000E+00  0.000000000E+00 -4.260678317E+02  4.260678317E+02  0.000000000E+00  0.00000E+00  9.000E+00
      25     1     1     2     0     0 -5.294967976E+00 -1.358915166E+02  3.268405402E-01  1.847150448E+02  1.250000000E+02  0.00000E+00  9.000E+00
      25     1     1     2     0     0  1.475659998E+02 -1.031351196E+01 -2.900077708E+02  3.487285476E+02  1.250000000E+02  0.00000E+00  9.000E+00
      21     1     1     2   511   502 -1.422710318E+02  1.462050285E+02  7.027526242E+02  7.317637649E+02  1.078959322E-05  0.00000E+00  9.000E+00
#rwgt            1           1   4.0519602999067289E-002           8      198620           0
</event>
<event>
      5   9999  3.79277E-02  6.27984E+00 -1.00000E+00  2.22441E-01
      21    -1     0     0   502   512  0.000000000E+00  0.000000000E+00  1.940143462E+02  1.940143462E+02  0.000000000E+00  0.00000E+00  9.000E+00
      21    -1     0     0   501   502  0.000000000E+00  0.000000000E+00 -2.766435131E+02  2.766435131E+02  0.000000000E+00  0.00000E+00  9.000E+00
      25     1     1     2     0     0 -5.852140086E-01  2.075692268E+01 -2.032775370E+02  2.395369478E+02  1.250000000E+02  0.00000E+00  9.000E+00
      25     1     1     2     0     0 -5.449918098E+00 -1.902096215E+01  1.747556835E+01  1.277571685E+02  1.250000000E+02  0.00000E+00  9.000E+00
      21     1     1     2   501   512  6.035132106E+00 -1.735960527E+00  1.031728017E+02  1.033637431E+02  1.348699152E-06  0.00000E+00  9.000E+00
#rwgt            1           1   2.9454725480781183E-002           8      198742           0
</event>
<event>
      5   9999  3.79277E-02  1.10453E+02 -1.00000E+00  1.21917E-01
      21    -1     0     0   502   501  0.000000000E+00  0.000000000E+00  1.086584413E+02  1.086584413E+02  0.000000000E+00  0.00000E+00  9.000E+00
      21    -1     0     0   511   502  0.000000000E+00  0.000000000E+00 -1.700693916E+03  1.700693916E+03  0.000000000E+00  0.00000E+00  9.000E+00
      25     1     1     2     0     0  3.191737547E+02  1.820660786E+02 -5.670460437E+02  6.871580301E+02  1.250000000E+02  0.00000E+00  9.000E+00
      25     1     1     2     0     0 -2.096323952E+02 -1.962240018E+02 -5.350789527E+02  6.199871657E+02  1.250000000E+02  0.00000E+00  9.000E+00
      21     1     1     2   511   501 -1.095413595E+02  1.415792326E+01 -4.899104785E+02  5.022071616E+02  7.629394531E-06  0.00000E+00  9.000E+00
#rwgt            1           1   3.0420577580937372E-002           8      199131           0
</event>
<event>
      5   9999  3.79277E-02  2.49500E+01 -1.00000E+00  1.58816E-01
      21    -1     0     0   502   501  0.000000000E+00  0.000000000E+00  6.882640724E+02  6.882640724E+02  0.000000000E+00  0.00000E+00  9.000E+00
       2    -1     0     0   501     0  0.000000000E+00  0.000000000E+00 -5.466968680E+02  5.466968680E+02  0.000000000E+00  0.00000E+00  9.000E+00
      25     1     1     2     0     0  7.659544076E+01 -1.618585287E+02  1.623014744E+01  2.189827905E+02  1.250000000E+02  0.00000E+00  9.000E+00
      25     1     1     2     0     0 -5.493990598E+01  1.742497283E+02  5.488073480E+02  5.917734924E+02  1.250000000E+02  0.00000E+00  9.000E+00
       2     1     1     2   502     0 -2.165553478E+01 -1.239119955E+01 -4.234702910E+02  4.242046574E+02  5.394796609E-06  0.00000E+00  9.000E+00
#rwgt            1           1   3.1406751167119024E-002           8      199287           0
</event>
<event>
      5   9999  3.79277E-02  5.66697E+01 -1.00000E+00  1.36042E-01
       1    -1     0     0   502     0  0.000000000E+00  0.000000000E+00  1.249088870E+02  1.249088870E+02  0.000000000E+00  0.00000E+00  9.000E+00
      21    -1     0     0   501   502  0.000000000E+00  0.000000000E+00 -5.235640996E+02  5.235640996E+02  0.000000000E+00  0.00000E+00  9.000E+00
      25     1     1     2     0     0 -4.849285349E+01 -7.393740106E+01 -4.307385426E+02  4.571421969E+02  1.250000000E+02  0.00000E+00  9.000E+00
      25     1     1     2     0     0  3.445141662E+01  1.903479851E+01  1.375247244E+01  1.317700807E+02  1.250000000E+02  0.00000E+00  9.000E+00
       1     1     1     2   501     0  1.404143687E+01  5.490260255E+01  1.833085753E+01  5.956070897E+01  1.327458468E-06  0.00000E+00  9.000E+00
#rwgt            1           1   3.9965778719984933E-002           8      199387           0
</event>
<event>
      5   9999  3.79277E-02  1.14005E+01 -1.00000E+00  1.89399E-01
      21    -1     0     0   511   501  0.000000000E+00  0.000000000E+00  2.105552331E+02  2.105552331E+02  0.000000000E+00  0.00000E+00  9.000E+00
      21    -1     0     0   501   502  0.000000000E+00  0.000000000E+00 -1.907808248E+02  1.907808248E+02  0.000000000E+00  0.00000E+00  9.000E+00
      25     1     1     2     0     0  8.023237144E+01 -5.076074386E+01 -9.670269000E+01  1.843645758E+02  1.250000000E+02  0.00000E+00  9.000E+00
      25     1     1     2     0     0 -8.932439330E+01  5.763870107E+01  8.778513682E+01  1.860975479E+02  1.250000000E+02  0.00000E+00  9.000E+00
      21     1     1     2   511   502  9.092021862E+00 -6.877957206E+00  2.869196151E+01  3.087393419E+01  3.371747881E-07  0.00000E+00  9.000E+00
#rwgt            1           1   3.6326504674990226E-002           8      199552           0
</event>
<event>
      5   9999  3.79277E-02  4.71733E+01 -1.00000E+00  1.40533E-01
      21    -1     0     0   502   501  0.000000000E+00  0.000000000E+00  1.379870542E+02  1.379870542E+02  0.000000000E+00  0.00000E+00  9.000E+00
       1    -1     0     0   501     0  0.000000000E+00  0.000000000E+00 -6.347806613E+02  6.347806613E+02  0.000000000E+00  0.00000E+00  9.000E+00
      25     1     1     2     0     0 -1.472496239E+02  1.072198833E+01 -2.174478743E+01  1.946670197E+02  1.250000000E+02  0.00000E+00  9.000E+00
      25     1     1     2     0     0  1.688648159E+02  3.120776040E+01 -1.774088669E+02  2.767456529E+02  1.250000000E+02  0.00000E+00  9.000E+00
       1     1     1     2   502     0 -2.161519199E+01 -4.192974873E+01 -2.976399528E+02  3.013550429E+02  3.814697266E-06  0.00000E+00  9.000E+00
#rwgt            1           1   3.9769676582419325E-002           8      199719           0
</event>
<event>
      5   9999  3.79277E-02  1.25602E+01 -1.00000E+00  1.84968E-01
      21    -1     0     0   502   511  0.000000000E+00  0.000000000E+00  6.312374460E+01  6.312374460E+01  0.000000000E+00  0.00000E+00  9.000E+00
      21    -1     0     0   501   502  0.000000000E+00  0.000000000E+00 -5.987201889E+02  5.987201889E+02  0.000000000E+00  0.00000E+00  9.000E+00
      25     1     1     2     0     0 -9.234638267E+01 -4.453882555E+01 -1.283789874E+02  2.064406108E+02  1.250000000E+02  0.00000E+00  9.000E+00
      25     1     1     2     0     0  8.356921354E+01  5.352325458E+01 -4.120999563E+02  4.419275124E+02  1.250000000E+02  0.00000E+00  9.000E+00
      21     1     1     2   501   511  8.777169130E+00 -8.984429026E+00  4.882499400E+00  1.347581030E+01  3.371747881E-07  0.00000E+00  9.000E+00
#rwgt            1           1   4.5924243737468756E-002           8      199917           0
</event>
<event>
      5   9999  3.79277E-02  1.04593E+02 -1.00000E+00  1.22957E-01
      21    -1     0     0   502   501  0.000000000E+00  0.000000000E+00  4.645786249E+02  4.645786249E+02  0.000000000E+00  0.00000E+00  9.000E+00
      21    -1     0     0   512   502  0.000000000E+00  0.000000000E+00 -4.701424638E+02  4.701424638E+02  0.000000000E+00  0.00000E+00  9.000E+00
      25     1     1     2     0     0  1.375895287E+02 -2.082887649E+02 -1.682142976E+02  3.259388561E+02  1.250000000E+02  0.00000E+00  9.000E+00
      25     1     1     2     0     0 -2.205135520E+02  2.720324802E+02  2.695316924E+02  4.592387507E+02  1.250000000E+02  0.00000E+00  9.000E+00
      21     1     1     2   512   501  8.292402326E+01 -6.374371539E+01 -1.068812337E+02  1.495434820E+02  1.348699152E-06  0.00000E+00  9.000E+00
#rwgt            1           1   5.3604671912489688E-002           8      200215           0
</event>
<event>
      5   9999  3.79277E-02  4.41952E+01 -1.00000E+00  1.42204E-01
      21    -1     0     0   502   511  0.000000000E+00  0.000000000E+00  1.403586760E+02  1.403586760E+02  0.000000000E+00  0.00000E+00  9.000E+00
      21    -1     0     0   501   502  0.000000000E+00  0.000000000E+00 -4.570955177E+02  4.570955177E+02  0.000000000E+00  0.00000E+00  9.000E+00
      25     1     1     2     0     0 -1.394074426E+01 -1.845904334E+02 -8.859231885E+01  2.402947594E+02  1.250000000E+02  0.00000E+00  9.000E+00
      25     1     1     2     0     0 -2.108828055E+00  1.434124836E+02 -2.447052978E+02  3.099633372E+02  1.250000000E+02  0.00000E+00  9.000E+00
      21     1     1     2   501   511  1.604957231E+01  4.117794974E+01  1.656077501E+01  4.719609714E+01  6.307962682E-07  0.00000E+00  9.000E+00
#rwgt            1           1   4.8991109530612899E-002           8      200323           0
</event>
<event>
      5   9999  3.79277E-02  1.27487E+02 -1.00000E+00  1.19263E-01
       1    -1     0     0   502     0  0.000000000E+00  0.000000000E+00  1.903449597E+03  1.903449597E+03  0.000000000E+00  0.00000E+00  9.000E+00
      21    -1     0     0   501   502  0.000000000E+00  0.000000000E+00 -5.633334524E+01  5.633334524E+01  0.000000000E+00  0.00000E+00  9.000E+00
      25     1     1     2     0     0  1.730301400E+02  6.311692932E+01  1.055272266E+03  1.078493269E+03  1.250000000E+02  0.00000E+00  9.000E+00
      25     1     1     2     0     0 -4.687068249E+01 -4.476972037E+01  8.810937348E+01  1.661007238E+02  1.250000000E+02  0.00000E+00  9.000E+00
       1     1     1     2   501     0 -1.261594575E+02 -1.834720895E+01  7.037346120E+02  7.151889492E+02  7.629394531E-06  0.00000E+00  9.000E+00
#rwgt            1           1   2.6670564307056686E-002           8      200451           0
</event>
<event>
      5   9999  3.79277E-02  4.65201E+01 -1.00000E+00  1.40887E-01
      21    -1     0     0   502   511  0.000000000E+00  0.000000000E+00  3.038856480E+02  3.038856480E+02  0.000000000E+00  0.00000E+00  9.000E+00
      21    -1     0     0   501   502  0.000000000E+00  0.000000000E+00 -4.740381830E+02  4.740381830E+02  0.000000000E+00  0.00000E+00  9.000E+00
      25     1     1     2     0     0 -2.407207566E+02 -2.167750386E+02 -2.062951046E+02  4.038818766E+02  1.250000000E+02  0.00000E+00  9.000E+00
      25     1     1     2     0     0  2.088257216E+02  1.829101481E+02 -1.511171572E+01  3.048239955E+02  1.250000000E+02  0.00000E+00  9.000E+00
      21     1     1     2   501   511  3.189503497E+01  3.386489054E+01  5.125428538E+01  6.921795892E+01  1.168007728E-06  0.00000E+00  9.000E+00
#rwgt            1           1   4.4665492087758461E-002           8      200494           0
</event>
<event>
      5   9999  3.79277E-02  3.70599E+01 -1.00000E+00  1.46927E-01
      21    -1     0     0   502   512  0.000000000E+00  0.000000000E+00  3.502184035E+02  3.502184035E+02  0.000000000E+00  0.00000E+00  9.000E+00
      21    -1     0     0   501   502  0.000000000E+00  0.000000000E+00 -2.357377510E+02  2.357377510E+02  0.000000000E+00  0.00000E+00  9.000E+00
      25     1     1     2     0     0 -8.552958735E+01  2.176423840E+02  1.389737073E+02  2.993696861E+02  1.250000000E+02  0.00000E+00  9.000E+00
      25     1     1     2     0     0  9.848698038E+01 -1.829214610E+02 -4.120540186E+01  2.459325748E+02  1.250000000E+02  0.00000E+00  9.000E+00
      21     1     1     2   501   512 -1.295739303E+01 -3.472092300E+01  1.671234700E+01  4.065389367E+01  1.039242493E-06  0.00000E+00  9.000E+00
#rwgt            1           1   7.8560598597847975E-002           8      200712           0
</event>
<event>
      5   9999  3.79277E-02  3.43694E+01 -1.00000E+00  1.49048E-01
      21    -1     0     0   502   511  0.000000000E+00  0.000000000E+00  4.264899420E+02  4.264899420E+02  0.000000000E+00  0.00000E+00  9.000E+00
      21    -1     0     0   501   502  0.000000000E+00  0.000000000E+00 -2.378625892E+02  2.378625892E+02  0.000000000E+00  0.00000E+00  9.000E+00
      25     1     1     2     0     0  9.602731565E+01 -2.723006580E+01  2.081062402E+02  2.624803403E+02  1.250000000E+02  0.00000E+00  9.000E+00
      25     1     1     2     0     0 -8.218669064E+01  5.868944102E+01 -1.779183078E+02  2.397478402E+02  1.250000000E+02  0.00000E+00  9.000E+00
      21     1     1     2   501   511 -1.384062501E+01 -3.145937521E+01  1.584394204E+02  1.621243508E+02  3.303624740E-06  0.00000E+00  9.000E+00
#rwgt            1           1   3.1938078052359750E-002           8      200890           0
</event>
<event>
      5   9999  3.79277E-02  1.24103E+02 -1.00000E+00  1.19752E-01
      21    -1     0     0   512   501  0.000000000E+00  0.000000000E+00  1.432229372E+03  1.432229372E+03  0.000000000E+00  0.00000E+00  9.000E+00
      21    -1     0     0   501   502  0.000000000E+00  0.000000000E+00 -9.658206146E+01  9.658206146E+01  0.000000000E+00  0.00000E+00  9.000E+00
      25     1     1     2     0     0 -1.452771429E+02  5.538095068E+01  2.725282533E+02  3.377412424E+02  1.250000000E+02  0.00000E+00  9.000E+00
      25     1     1     2     0     0  2.451224389E+02  1.832369156E+01  2.619513327E+02  3.803475626E+02  1.250000000E+02  0.00000E+00  9.000E+00
      21     1     1     2   512   502 -9.984529593E+01 -7.370464224E+01  8.011677249E+02  8.107226288E+02  1.078959322E-05  0.00000E+00  9.000E+00
#rwgt            1           1  0.21156078394420533                8      201040           0
</event>
<event>
      5   9999  3.79277E-02  1.81683E+02 -1.00000E+00  1.13188E-01
      21    -1     0     0   502   511  0.000000000E+00  0.000000000E+00  1.338403688E+02  1.338403688E+02  0.000000000E+00  0.00000E+00  9.000E+00
      21    -1     0     0   501   502  0.000000000E+00  0.000000000E+00 -9.154839312E+02  9.154839312E+02  0.000000000E+00  0.00000E+00  9.000E+00
      25     1     1     2     0     0 -1.366282251E+02 -4.442411775E+00 -5.469309773E+01  1.931407307E+02  1.250000000E+02  0.00000E+00  9.000E+00
      25     1     1     2     0     0 -1.396520004E+01  1.060797668E+02 -6.282154792E+02  6.494055990E+02  1.250000000E+02  0.00000E+00  9.000E+00
      21     1     1     2   501   511  1.505934251E+02 -1.016373550E+02 -9.873498556E+01  2.067779703E+02  0.000000000E+00  0.00000E+00  9.000E+00
#rwgt            1           1   4.5511756383609325E-002           8      201093           0
</event>
<event>
      5   9999  3.79277E-02  2.53116E+01 -1.00000E+00  1.58349E-01
       5    -1     0     0   502     0  0.000000000E+00  0.000000000E+00  5.230125973E+02  5.230125973E+02  0.000000000E+00  0.00000E+00  9.000E+00
      21    -1     0     0   501   502  0.000000000E+00  0.000000000E+00 -1.360620826E+02  1.360620826E+02  0.000000000E+00  0.00000E+00  9.000E+00
      25     1     1     2     0     0 -1.914016202E+01  1.539096950E+02  6.717829886E+01  2.102200367E+02  1.250000000E+02  0.00000E+00  9.000E+00
      25     1     1     2     0     0  3.473715507E+01 -1.339745408E+02  7.218792348E+01  1.999798586E+02  1.250000000E+02  0.00000E+00  9.000E+00
       5     1     1     2   501     0 -1.559699305E+01 -1.993515411E+01  2.475842924E+02  2.488747846E+02  4.672030912E-06  0.00000E+00  9.000E+00
#rwgt            1           1   2.5591634446459184E-002           8      201203           0
</event>
<event>
      5   9999  3.79277E-02  5.82734E+01 -1.00000E+00  1.35385E-01
      21    -1     0     0   511   501  0.000000000E+00  0.000000000E+00  4.716982224E+02  4.716982224E+02  0.000000000E+00  0.00000E+00  9.000E+00
      21    -1     0     0   501   502  0.000000000E+00  0.000000000E+00 -1.813792320E+02  1.813792320E+02  0.000000000E+00  0.00000E+00  9.000E+00
      25     1     1     2     0     0  9.012450180E+01  1.616274201E+02  3.174265687E+01  2.255625080E+02  1.250000000E+02  0.00000E+00  9.000E+00
      25     1     1     2     0     0 -1.089041943E+02 -1.064629849E+02  3.966415128E+01  2.009794407E+02  1.250000000E+02  0.00000E+00  9.000E+00
      21     1     1     2   511   502  1.877969246E+01 -5.516443520E+01  2.189121823E+02  2.265355057E+02  2.697398305E-06  0.00000E+00  9.000E+00
#rwgt            1           1   3.9024219647819901E-002           8      201359           0
</event>
<event>
      5   9999  3.79277E-02  1.04191E+01 -1.00000E+00  1.93718E-01
      21    -1     0     0   512   501  0.000000000E+00  0.000000000E+00  3.119504817E+02  3.119504817E+02  0.000000000E+00  0.00000E+00  9.000E+00
      21    -1     0     0   501   502  0.000000000E+00  0.000000000E+00 -1.769024706E+02  1.769024706E+02  0.000000000E+00  0.00000E+00  9.000E+00
      25     1     1     2     0     0  2.497609108E+01  6.727156709E+01  1.302646783E+02  1.942759771E+02  1.250000000E+02  0.00000E+00  9.000E+00
      25     1     1     2     0     0 -3.386528992E+01 -6.183643174E+01 -1.090655547E+02  1.802523158E+02  1.250000000E+02  0.00000E+00  9.000E+00
      21     1     1     2   512   502  8.889198848E+00 -5.435135348E+00  1.138488875E+02  1.143246593E+02  1.348699152E-06  0.00000E+00  9.000E+00
#rwgt            1           1   4.5974028157345775E-002           8      201423           0
</event>
<event>
      5   9999  3.79277E-02  4.93942E+01 -1.00000E+00  1.39378E-01
      21    -1     0     0   502   501  0.000000000E+00  0.000000000E+00  1.506624099E+02  1.506624099E+02  0.000000000E+00  0.00000E+00  9.000E+00
      21    -1     0     0   511   502  0.000000000E+00  0.000000000E+00 -4.834986348E+02  4.834986348E+02  0.000000000E+00  0.00000E+00  9.000E+00
      25     1     1     2     0     0  3.510788490E+01  1.340530477E+02 -2.847062851E+02  3.404195235E+02  1.250000000E+02  0.00000E+00  9.000E+00
      25     1     1     2     0     0  1.062316753E+01 -1.527200073E+02  3.140301741E+01  2.001184695E+02  1.250000000E+02  0.00000E+00  9.000E+00
      21     1     1     2   511   501 -4.573105243E+01  1.866695960E+01 -7.953295723E+01  9.362305177E+01  9.536743164E-07  0.00000E+00  9.000E+00
#rwgt            1           1   3.2522882104484258E-002           8      201681           0
</event>
<event>
      5   9999  3.79277E-02  7.51136E+01 -1.00000E+00  1.29688E-01
      21    -1     0     0   502   501  0.000000000E+00  0.000000000E+00  6.905807140E+02  6.905807140E+02  0.000000000E+00  0.00000E+00  9.000E+00
       1    -1     0     0   501     0  0.000000000E+00  0.000000000E+00 -1.162171330E+02  1.162171330E+02  0.000000000E+00  0.00000E+00  9.000E+00
      25     1     1     2     0     0 -1.305771671E+02 -1.516696969E+01  3.116038956E+02  3.605584853E+02  1.250000000E+02  0.00000E+00  9.000E+00
      25     1     1     2     0     0  1.208524917E+02 -5.931445997E+01  3.079476309E+02  3.585809160E+02  1.250000000E+02  0.00000E+00  9.000E+00
       1     1     1     2   502     0  9.724675449E+00  7.448142966E+01 -4.518794561E+01  8.765844572E+01  8.259061849E-07  0.00000E+00  9.000E+00
#rwgt            1           1   3.5980949601621820E-002           8      201787           0
</event>
<event>
      5   9999  3.79277E-02  3.97706E+01 -1.00000E+00  1.44995E-01
      21    -1     0     0   511   501  0.000000000E+00  0.000000000E+00  3.261504413E+01  3.261504413E+01  0.000000000E+00  0.00000E+00  9.000E+00
      21    -1     0     0   501   502  0.000000000E+00  0.000000000E+00 -1.833349326E+03  1.833349326E+03  0.000000000E+00  0.00000E+00  9.000E+00
      25     1     1     2     0     0  1.586482576E+02 -3.084736498E+01 -6.791372048E+02  7.092060155E+02  1.250000000E+02  0.00000E+00  9.000E+00
      25     1     1     2     0     0 -1.904206520E+02  5.476845274E+01 -1.039004536E+03  1.065089214E+03  1.250000000E+02  0.00000E+00  9.000E+00
      21     1     1     2   511   502  3.177239440E+01 -2.392108777E+01 -8.259254131E+01  9.166914075E+01  0.000000000E+00  0.00000E+00  9.000E+00
#rwgt            1           1   1.3568677223328331E-002           8      201886           0
</event>
<event>
      5   9999  3.79277E-02  1.87889E+01 -1.00000E+00  1.68639E-01
      21    -1     0     0   502   501  0.000000000E+00  0.000000000E+00  1.376025710E+02  1.376025710E+02  0.000000000E+00  0.00000E+00  9.000E+00
      21    -1     0     0   512   502  0.000000000E+00  0.000000000E+00 -3.333619324E+02  3.333619324E+02  0.000000000E+00  0.00000E+00  9.000E+00
      25     1     1     2     0     0 -9.606632397E+01  1.028684342E+02 -1.057236780E+02  2.159007861E+02  1.250000000E+02  0.00000E+00  9.000E+00
      25     1     1     2     0     0  1.015433726E+02 -8.489549721E+01 -2.069847801E+01  1.832258960E+02  1.250000000E+02  0.00000E+00  9.000E+00
      21     1     1     2   512   501 -5.477048629E+00 -1.797293700E+01 -6.933720532E+01  7.183782129E+01  0.000000000E+00  0.00000E+00  9.000E+00
#rwgt            1           1   4.6771544315966751E-002           8      202209           0
</event>
<event>
      5   9999  3.79277E-02  1.25760E+01 -1.00000E+00  1.84913E-01
      21    -1     0     0   511   501  0.000000000E+00  0.000000000E+00  6.003897533E+02  6.003897533E+02  0.000000000E+00  0.00000E+00  9.000E+00
      21    -1     0     0   501   502  0.000000000E+00  0.000000000E+00 -1.440759418E+02  1.440759418E+02  0.000000000E+00  0.00000E+00  9.000E+00
      25     1     1     2     0     0  1.627197016E+01 -1.681430198E+02  1.060942753E+02  2.354099560E+02  1.250000000E+02  0.00000E+00  9.000E+00
      25     1     1     2     0     0 -2.860550183E+01  1.656856246E+02  5.913122731E+01  2.176958956E+02  1.250000000E+02  0.00000E+00  9.000E+00
      21     1     1     2   511   502  1.233353167E+01  2.457395225E+00  2.910883089E+02  2.913598434E+02  0.000000000E+00  0.00000E+00  9.000E+00
#rwgt            1           1   3.4579920849447082E-002           8      202361           0
</event>
<event>
      5   9999  3.79277E-02  3.80476E+01 -1.00000E+00  1.46201E-01
      21    -1     0     0   512   501  0.000000000E+00  0.000000000E+00  9.629644518E+01  9.629644518E+01  0.000000000E+00  0.00000E+00  9.000E+00
      21    -1     0     0   501   502  0.000000000E+00  0.000000000E+00 -6.265514420E+02  6.265514420E+02  0.000000000E+00  0.00000E+00  9.000E+00
      25     1     1     2     0     0 -1.142278817E+02 -1.128259499E+02 -9.611517890E+01  2.250351785E+02  1.250000000E+02  0.00000E+00  9.000E+00
      25     1     1     2     0     0  1.225787505E+02  7.570610406E+01 -4.114531872E+02  4.535148173E+02  1.250000000E+02  0.00000E+00  9.000E+00
      21     1     1     2   512   502 -8.350868807E+00  3.711984586E+01 -2.268663066E+01  4.429789134E+01  8.920806376E-07  0.00000E+00  9.000E+00
#rwgt            1           1   4.0704021220792676E-002           8      202561           0
</event>
<event>
      5   9999  3.79277E-02  2.39876E+01 -1.00000E+00  1.60107E-01
      21    -1     0     0   511   501  0.000000000E+00  0.000000000E+00  6.879392852E+02  6.879392852E+02  0.000000000E+00  0.00000E+00  9.000E+00
      21    -1     0     0   501   502  0.000000000E+00  0.000000000E+00 -4.257231655E+02  4.257231655E+02  0.000000000E+00  0.00000E+00  9.000E+00
      25     1     1     2     0     0  1.873055027E+02  3.616604635E+01 -5.665595661E+01  2.350026206E+02  1.250000000E+02  0.00000E+00  9.000E+00
      25     1     1     2     0     0 -2.104861995E+02 -2.999659175E+01 -2.252458754E+02  3.340133831E+02  1.250000000E+02  0.00000E+00  9.000E+00
      21     1     1     2   511   502  2.318069680E+01 -6.169454599E+00  5.441179517E+02  5.446464471E+02  0.000000000E+00  0.00000E+00  9.000E+00
#rwgt            1           1   3.7405848542559017E-002           8      202705           0
</event>
<event>
      5   9999  3.79277E-02  2.30897E+01 -1.00000E+00  1.61381E-01
      21    -1     0     0   502   501  0.000000000E+00  0.000000000E+00  5.564541522E+01  5.564541522E+01  0.000000000E+00  0.00000E+00  9.000E+00
       2    -1     0     0   501     0  0.000000000E+00  0.000000000E+00 -1.489620500E+03  1.489620500E+03  0.000000000E+00  0.00000E+00  9.000E+00
      25     1     1     2     0     0  4.264031400E+01 -1.496751315E+02 -3.082890758E+02  3.672710112E+02  1.250000000E+02  0.00000E+00  9.000E+00
      25     1     1     2     0     0 -2.535792119E+01  1.649870151E+02 -3.926282344E+02  4.445735820E+02  1.250000000E+02  0.00000E+00  9.000E+00
       2     1     1     2   502     0 -1.728239281E+01 -1.531188368E+01 -7.330577745E+02  7.334213220E+02  1.078959322E-05  0.00000E+00  9.000E+00
#rwgt            1           1   3.9681384812187914E-002           8      202837           0
</event>
<event>
      5   9999  3.79277E-02  2.31649E+01 -1.00000E+00  1.61271E-01
      21    -1     0     0   502   501  0.000000000E+00  0.000000000E+00  2.366569698E+01  2.366569698E+01  0.000000000E+00  0.00000E+00  9.000E+00
       2    -1     0     0   501     0  0.000000000E+00  0.000000000E+00 -2.323161161E+03  2.323161161E+03  0.000000000E+00  0.00000E+00  9.000E+00
      25     1     1     2     0     0  1.197438891E+02  3.608899051E+01 -4.683112020E+02  5.005810585E+02  1.250000000E+02  0.00000E+00  9.000E+00
      25     1     1     2     0     0 -1.249732546E+02 -1.352200933E+01 -1.060584130E+03  1.075297566E+03  1.250000000E+02  0.00000E+00  9.000E+00
       2     1     1     2   502     0  5.229365496E+00 -2.256698118E+01 -7.706001322E+02  7.709482335E+02  0.000000000E+00  0.00000E+00  9.000E+00
#rwgt            1           1   5.6476856558060756E-002           8      203085           0
</event>
<event>
      5   9999  3.79277E-02  2.50379E+01 -1.00000E+00  1.58702E-01
      21    -1     0     0   511   501  0.000000000E+00  0.000000000E+00  8.330410341E+02  8.330410341E+02  0.000000000E+00  0.00000E+00  9.000E+00
      21    -1     0     0   501   502  0.000000000E+00  0.000000000E+00 -1.140979032E+02  1.140979032E+02  0.000000000E+00  0.00000E+00  9.000E+00
      25     1     1     2     0     0 -9.595318077E+01 -1.198158464E+02  7.507974864E+01  2.117187252E+02  1.250000000E+02  0.00000E+00  9.000E+00
      25     1     1     2     0     0  1.186617570E+02  1.303618150E+02  2.116502451E+02  3.024824650E+02  1.250000000E+02  0.00000E+00  9.000E+00
      21     1     1     2   511   502 -2.270857622E+01 -1.054596863E+01  4.322131372E+02  4.329377471E+02  0.000000000E+00  0.00000E+00  9.000E+00
#rwgt            1           1   2.3440106341002222E-002           8      203383           0
</event>
<event>
      5   9999  3.79277E-02  2.93564E+01 -1.00000E+00  1.53697E-01
      21    -1     0     0   502   501  0.000000000E+00  0.000000000E+00  1.266006424E+03  1.266006424E+03  0.000000000E+00  0.00000E+00  9.000E+00
      21    -1     0     0   512   502  0.000000000E+00  0.000000000E+00 -2.977078475E+02  2.977078475E+02  0.000000000E+00  0.00000E+00  9.000E+00
      25     1     1     2     0     0  9.561087314E+01  1.914355805E+02  4.267758478E+02  4.935095185E+02  1.250000000E+02  0.00000E+00  9.000E+00
      25     1     1     2     0     0 -6.971271630E+01 -2.052588721E+02  7.855376061E+02  8.244303476E+02  1.250000000E+02  0.00000E+00  9.000E+00
      21     1     1     2   512   501 -2.589815684E+01  1.382329161E+01 -2.440148774E+02  2.457744054E+02  6.031565972E-06  0.00000E+00  9.000E+00
#rwgt            1           1   3.0285200304267779E-002           8      203566           0
</event>
<event>
      5   9999  3.79277E-02  8.09352E+01 -1.00000E+00  1.28106E-01
       2    -1     0     0   502     0  0.000000000E+00  0.000000000E+00  8.500052351E+02  8.500052351E+02  0.000000000E+00  0.00000E+00  9.000E+00
      21    -1     0     0   501   502  0.000000000E+00  0.000000000E+00 -2.394152499E+02  2.394152499E+02  0.000000000E+00  0.00000E+00  9.000E+00
      25     1     1     2     0     0  2.789445718E+02  1.335225576E+01 -6.700092989E+01  3.132131566E+02  1.250000000E+02  0.00000E+00  9.000E+00
      25     1     1     2     0     0 -2.015781385E+02 -3.712064973E+01  2.727623467E+02  3.633675637E+02  1.250000000E+02  0.00000E+00  9.000E+00
       2     1     1     2   501     0 -7.736643329E+01  2.376839397E+01  4.048285684E+02  4.128397647E+02  7.629394531E-06  0.00000E+00  9.000E+00
#rwgt            1           1   3.8430584795130153E-002           8      203743           0
</event>
<event>
      5   9999  3.79277E-02  1.39531E+02 -1.00000E+00  1.17653E-01
      21    -1     0     0   502   501  0.000000000E+00  0.000000000E+00  1.901158222E+02  1.901158222E+02  0.000000000E+00  0.00000E+00  9.000E+00
      21    -1     0     0   501   511  0.000000000E+00  0.000000000E+00 -8.083961597E+02  8.083961597E+02  0.000000000E+00  0.00000E+00  9.000E+00
      25     1     1     2     0     0 -5.508988147E+01 -1.937748978E+02  2.578143169E+00  2.370975598E+02  1.250000000E+02  0.00000E+00  9.000E+00
      25     1     1     2     0     0  1.829824684E+02  1.379862548E+02 -2.355237308E+02  3.515952474E+02  1.250000000E+02  0.00000E+00  9.000E+00
      21     1     1     2   502   511 -1.278925869E+02  5.578864298E+01 -3.853347498E+02  4.098191746E+02  5.394796609E-06  0.00000E+00  9.000E+00
#rwgt            1           1  0.12033151154098573                8      203909           0
</event>
<event>
      5   9999 -3.79277E-02  9.54952E+00 -1.00000E+00  1.98100E-01
      21    -1     0     0   502   512  0.000000000E+00  0.000000000E+00  1.327440324E+02  1.327440324E+02  0.000000000E+00  0.00000E+00  9.000E+00
      21    -1     0     0   501   502  0.000000000E+00  0.000000000E+00 -1.989472360E+03  1.989472360E+03  0.000000000E+00  0.00000E+00  9.000E+00
      25     1     1     2     0     0  3.596777359E+02  1.725256401E+02 -1.524926804E+03  1.581189403E+03  1.250000000E+02  0.00000E+00  9.000E+00
      25     1     1     2     0     0 -3.630847525E+02 -1.636045608E+02 -3.275391502E+02  5.305693967E+02  1.250000000E+02  0.00000E+00  9.000E+00
      21     1     1     2   501   512  3.407016647E+00 -8.921079342E+00 -4.262373243E+00  1.045759268E+01  2.528810911E-07  0.00000E+00  9.000E+00
#rwgt            1           1 -0.35017371386545337                8      203987           0
</event>
<event>
      5   9999  3.79277E-02  7.11185E+00 -1.00000E+00  2.14585E-01
      21    -1     0     0   502   501  0.000000000E+00  0.000000000E+00  3.199066204E+01  3.199066204E+01  0.000000000E+00  0.00000E+00  9.000E+00
      21    -1     0     0   511   502  0.000000000E+00  0.000000000E+00 -1.803531125E+03  1.803531125E+03  0.000000000E+00  0.00000E+00  9.000E+00
      25     1     1     2     0     0  1.190737003E+02  1.186200441E+01 -2.886262455E+02  3.365254268E+02  1.250000000E+02  0.00000E+00  9.000E+00
      25     1     1     2     0     0 -1.244753541E+02 -1.648807446E+01 -9.709476919E+02  9.869804410E+02  1.250000000E+02  0.00000E+00  9.000E+00
      21     1     1     2   511   501  5.401653750E+00  4.626070051E+00 -5.119665253E+02  5.120159191E+02  1.078959322E-05  0.00000E+00  9.000E+00
#rwgt            1           1   3.7500232680725346E-002           8      204360           0
</event>
<event>
      5   9999  3.79277E-02  1.49133E+02 -1.00000E+00  1.16494E-01
      21    -1     0     0   502   501  0.000000000E+00  0.000000000E+00  1.259308257E+03  1.259308257E+03  0.000000000E+00  0.00000E+00  9.000E+00
      21    -1     0     0   512   502  0.000000000E+00  0.000000000E+00 -8.034465344E+01  8.034465344E+01  0.000000000E+00  0.00000E+00  9.000E+00
      25     1     1     2     0     0  8.154850535E+01 -4.297461612E+01  9.142680614E+01  1.802244080E+02  1.250000000E+02  0.00000E+00  9.000E+00
      25     1     1     2     0     0 -1.390924302E+02 -9.460885221E+01  8.752655444E+02  9.000068401E+02  1.250000000E+02  0.00000E+00  9.000E+00
      21     1     1     2   512   501  5.754392489E+01  1.375834683E+02  2.122712532E+02  2.594216626E+02  3.814697266E-06  0.00000E+00  9.000E+00
#rwgt            1           1   4.0316635684811752E-002           8      204702           0
</event>
<event>
      5   9999  3.79277E-02  9.87868E+00 -1.00000E+00  1.96372E-01
      21    -1     0     0   511   501  0.000000000E+00  0.000000000E+00  2.222942863E+02  2.222942863E+02  0.000000000E+00  0.00000E+00  9.000E+00
      21    -1     0     0   501   502  0.000000000E+00  0.000000000E+00 -1.480072152E+02  1.480072152E+02  0.000000000E+00  0.00000E+00  9.000E+00
      25     1     1     2     0     0 -2.046219614E+01  8.957381575E+01 -4.827200166E+01  1.624726318E+02  1.250000000E+02  0.00000E+00  9.000E+00
      25     1     1     2     0     0  1.160506407E+01 -9.394868965E+01  1.204623027E+02  1.977301195E+02  1.250000000E+02  0.00000E+00  9.000E+00
      21     1     1     2   511   502  8.857132070E+00  4.374873899E+00  2.096770051E+00  1.009875016E+01  1.604904177E-07  0.00000E+00  9.000E+00
#rwgt            1           1   4.7441412531784903E-002           8      204930           0
</event>
<event>
      5   9999 -3.79277E-02  5.23208E+01 -1.00000E+00  1.37960E-01
      21    -1     0     0   502   512  0.000000000E+00  0.000000000E+00  1.715405133E+03  1.715405133E+03  0.000000000E+00  0.00000E+00  9.000E+00
      21    -1     0     0   501   502  0.000000000E+00  0.000000000E+00 -1.120685540E+02  1.120685540E+02  0.000000000E+00  0.00000E+00  9.000E+00
      25     1     1     2     0     0  1.428667174E+02 -1.737283966E+02  1.192252998E+02  2.836055832E+02  1.250000000E+02  0.00000E+00  9.000E+00
      25     1     1     2     0     0 -1.040130988E+02  1.386874774E+02  3.608807619E+02  4.194196769E+02  1.250000000E+02  0.00000E+00  9.000E+00
      21     1     1     2   501   512 -3.885361857E+01  3.504091916E+01  1.123230518E+03  1.124448427E+03  0.000000000E+00  0.00000E+00  9.000E+00
#rwgt            1           1  -4.2017704825628083E-002           8      205222           0
</event>
<event>
      5   9999  3.79277E-02  3.92833E+01 -1.00000E+00  1.45329E-01
      21    -1     0     0   502   501  0.000000000E+00  0.000000000E+00  1.684384406E+03  1.684384406E+03  0.000000000E+00  0.00000E+00  9.000E+00
      21    -1     0     0   511   502  0.000000000E+00  0.000000000E+00 -2.408224777E+01  2.408224777E+01  0.000000000E+00  0.00000E+00  9.000E+00
      25     1     1     2     0     0 -5.710624094E+01  2.779353606E+01  1.138993928E+03  1.147591291E+03  1.250000000E+02  0.00000E+00  9.000E+00
      25     1     1     2     0     0  9.394147261E+01 -4.144428917E+01  4.640527277E+02  4.914392775E+02  1.250000000E+02  0.00000E+00  9.000E+00
      21     1     1     2   511   501 -3.683523167E+01  1.365075312E+01  5.725550245E+01  6.943608510E+01  1.507891493E-06  0.00000E+00  9.000E+00
#rwgt            1           1   6.8307185994353314E-002           8      205355           0
</event>
<event>
      5   9999  3.79277E-02  1.74864E+02 -1.00000E+00  1.13814E-01
      21    -1     0     0   502   501  0.000000000E+00  0.000000000E+00  2.638008964E+02  2.638008964E+02  0.000000000E+00  0.00000E+00  9.000E+00
      21    -1     0     0   512   502  0.000000000E+00  0.000000000E+00 -5.141199479E+02  5.141199479E+02  0.000000000E+00  0.00000E+00  9.000E+00
      25     1     1     2     0     0  2.311231853E+02  2.795670454E+01  1.143507159E+02  2.879246262E+02  1.250000000E+02  0.00000E+00  9.000E+00
      25     1     1     2     0     0 -5.818976531E+01 -2.046915588E+00 -2.343585110E+02  2.719175433E+02  1.250000000E+02  0.00000E+00  9.000E+00
      21     1     1     2   512   501 -1.729334200E+02 -2.590978895E+01 -1.303112563E+02  2.180786749E+02  3.303624740E-06  0.00000E+00  9.000E+00
#rwgt            1           1   5.0771147864285271E-002           8      205473           0
</event>
<event>
      5   9999  3.79277E-02  2.19247E+01 -1.00000E+00  1.63143E-01
      21    -1     0     0   502   511  0.000000000E+00  0.000000000E+00  1.263340698E+03  1.263340698E+03  0.000000000E+00  0.00000E+00  9.000E+00
      21    -1     0     0   501   502  0.000000000E+00  0.000000000E+00 -1.321286366E+02  1.321286366E+02  0.000000000E+00  0.00000E+00  9.000E+00
      25     1     1     2     0     0  1.079498378E+02 -1.037339313E+02  3.692581484E+01  1.985004075E+02  1.250000000E+02  0.00000E+00  9.000E+00
      25     1     1     2     0     0 -8.892477779E+01  9.283715794E+01  1.057085722E+02  2.081481594E+02  1.250000000E+02  0.00000E+00  9.000E+00
      21     1     1     2   501   511 -1.902506000E+01  1.089677331E+01  9.885776739E+02  9.888207674E+02  2.157918644E-05  0.00000E+00  9.000E+00
#rwgt            1           1   3.5742726393593521E-002           8      205530           0
</event>
<event>
      5   9999  3.79277E-02  4.52561E+01 -1.00000E+00  1.41591E-01
      21    -1     0     0   502   501  0.000000000E+00  0.000000000E+00  4.633907131E+01  4.633907131E+01  0.000000000E+00  0.00000E+00  9.000E+00
      21    -1     0     0   501   512  0.000000000E+00  0.000000000E+00 -1.262553558E+03  1.262553558E+03  0.000000000E+00  0.00000E+00  9.000E+00
      25     1     1     2     0     0 -4.575684311E+01 -1.249915223E+02 -4.348892053E+02  4.716674572E+02  1.250000000E+02  0.00000E+00  9.000E+00
      25     1     1     2     0     0  2.478983332E+01  1.650976272E+02 -3.809791002E+02  4.343291806E+02  1.250000000E+02  0.00000E+00  9.000E+00
      21     1     1     2   502   512  2.096700979E+01 -4.010610492E+01 -4.003461807E+02  4.028959910E+02  7.629394531E-06  0.00000E+00  9.000E+00
#rwgt            1           1   3.9770519468586375E-002           8      205725           0
</event>
<event>
      5   9999  3.79277E-02  1.54179E+02 -1.00000E+00  1.15923E-01
      21    -1     0     0   511   501  0.000000000E+00  0.000000000E+00  8.458633504E+02  8.458633504E+02  0.000000000E+00  0.00000E+00  9.000E+00
      21    -1     0     0   501   502  0.000000000E+00  0.000000000E+00 -2.047692241E+02  2.047692241E+02  0.000000000E+00  0.00000E+00  9.000E+00
      25     1     1     2     0     0  2.448095059E+02  1.385475228E+02  4.492180218E+02  5.445630738E+02  1.250000000E+02  0.00000E+00  9.000E+00
      25     1     1     2     0     0 -2.047247490E+02  1.032950311E+01 -2.345285231E+01  2.412342384E+02  1.250000000E+02  0.00000E+00  9.000E+00
      21     1     1     2   511   502 -4.008475692E+01 -1.488770259E+02  2.153289568E+02  2.648352624E+02  0.000000000E+00  0.00000E+00  9.000E+00
#rwgt            1           1   2.6159538784343184E-002           8      205968           0
</event>
<event>
      5   9999  3.79277E-02  3.65352E+01 -1.00000E+00  1.47323E-01
      21    -1     0     0   502   501  0.000000000E+00  0.000000000E+00  2.602217084E+02  2.602217084E+02  0.000000000E+00  0.00000E+00  9.000E+00
      21    -1     0     0   501   512  0.000000000E+00  0.000000000E+00 -3.420973812E+02  3.420973812E+02  0.000000000E+00  0.00000E+00  9.000E+00
      25     1     1     2     0     0  6.658603090E+01  1.699302678E+02 -4.314391039E+01  2.253805502E+02  1.250000000E+02  0.00000E+00  9.000E+00
      25     1     1     2     0     0 -6.383118676E+01 -2.063614757E+02  7.247904980E+01  2.598801488E+02  1.250000000E+02  0.00000E+00  9.000E+00
      21     1     1     2   502   512 -2.754844131E+00  3.643120792E+01 -1.112108122E+02  1.170583906E+02  1.348699152E-06  0.00000E+00  9.000E+00
#rwgt            1           1   2.1884081145727482E-002           8      206038           0
</event>
<event>
      5   9999  3.79277E-02  5.76624E+01 -1.00000E+00  1.35632E-01
      21    -1     0     0   502   501  0.000000000E+00  0.000000000E+00  3.925126404E+02  3.925126404E+02  0.000000000E+00  0.00000E+00  9.000E+00
      21    -1     0     0   501   511  0.000000000E+00  0.000000000E+00 -4.703357588E+02  4.703357588E+02  0.000000000E+00  0.00000E+00  9.000E+00
      25     1     1     2     0     0  3.512223886E+02 -3.179562960E+01 -8.244492685E+01  3.831322151E+02  1.250000000E+02  0.00000E+00  9.000E+00
      25     1     1     2     0     0 -2.954123724E+02  1.729764132E+01  1.262161550E+02  3.451422836E+02  1.250000000E+02  0.00000E+00  9.000E+00
      21     1     1     2   502   511 -5.581001618E+01  1.449798828E+01 -1.215943466E+02  1.345739005E+02  2.336015456E-06  0.00000E+00  9.000E+00
#rwgt            1           1   4.5614870642792876E-002           8      206282           0
</event>
<event>
      5   9999  3.79277E-02  1.17930E+01 -1.00000E+00  1.87826E-01
      21    -1     0     0   502   512  0.000000000E+00  0.000000000E+00  3.285269426E+02  3.285269426E+02  0.000000000E+00  0.00000E+00  9.000E+00
      21    -1     0     0   501   502  0.000000000E+00  0.000000000E+00 -2.182303024E+02  2.182303024E+02  0.000000000E+00  0.00000E+00  9.000E+00
      25     1     1     2     0     0 -1.788141361E+02  1.230522043E+02  1.243594685E+02  2.796544612E+02  1.250000000E+02  0.00000E+00  9.000E+00
      25     1     1     2     0     0  1.871512764E+02 -1.147115865E+02 -2.090499346E+01  2.534686708E+02  1.250000000E+02  0.00000E+00  9.000E+00
      21     1     1     2   501   512 -8.337140274E+00 -8.340617806E+00  6.842165172E+00  1.363411301E+01  2.064765462E-07  0.00000E+00  9.000E+00
#rwgt            1           1   2.5720279644188188E-002           8      206441           0
</event>
<event>
      5   9999  3.79277E-02  6.13902E+01 -1.00000E+00  1.34174E-01
      21    -1     0     0   502   511  0.000000000E+00  0.000000000E+00  1.270927710E+03  1.270927710E+03  0.000000000E+00  0.00000E+00  9.000E+00
      21    -1     0     0   501   502  0.000000000E+00  0.000000000E+00 -3.335213003E+01  3.335213003E+01  0.000000000E+00  0.00000E+00  9.000E+00
      25     1     1     2     0     0  3.600778081E+01 -1.377124380E+01  1.728992562E+02  2.168071960E+02  1.250000000E+02  0.00000E+00  9.000E+00
      25     1     1     2     0     0 -9.352258229E+01  3.523756125E+01  7.574734340E+02  7.741958165E+02  1.250000000E+02  0.00000E+00  9.000E+00
      21     1     1     2   501   511  5.751480148E+01 -2.146631745E+01  3.072028895E+02  3.132768272E+02  3.814697266E-06  0.00000E+00  9.000E+00
#rwgt            1           1   6.3523511611544736E-002           8      206708           0
</event>
<event>
      5   9999  3.79277E-02  2.60324E+01 -1.00000E+00  1.57446E-01
       2    -1     0     0   502     0  0.000000000E+00  0.000000000E+00  5.200258808E+02  5.200258808E+02  0.000000000E+00  0.00000E+00  9.000E+00
      21    -1     0     0   501   502  0.000000000E+00  0.000000000E+00 -1.053419401E+03  1.053419401E+03  0.000000000E+00  0.00000E+00  9.000E+00
      25     1     1     2     0     0  1.115136244E+02  6.179329452E+01 -7.813421368E+02  8.014825229E+02  1.250000000E+02  0.00000E+00  9.000E+00
      25     1     1     2     0     0 -8.551685897E+01 -6.043253519E+01 -2.362518546E+02  2.870629953E+02  1.250000000E+02  0.00000E+00  9.000E+00
       2     1     1     2   501     0 -2.599676544E+01 -1.360759332E+00  4.842004717E+02  4.848997632E+02  5.394796609E-06  0.00000E+00  9.000E+00
#rwgt            1           1   4.0618023251018480E-002           8      206810           0
</event>
<event>
      5   9999  3.79277E-02  2.09886E+01 -1.00000E+00  1.64659E-01
      21    -1     0     0   502   501  0.000000000E+00  0.000000000E+00  8.104573359E+02  8.104573359E+02  0.000000000E+00  0.00000E+00  9.000E+00
      21    -1     0     0   501   511  0.000000000E+00  0.000000000E+00 -1.687755406E+02  1.687755406E+02  0.000000000E+00  0.00000E+00  9.000E+00
      25     1     1     2     0     0  1.349738128E+02 -2.611596625E+02  5.298801940E+02  6.187247526E+02  1.250000000E+02  0.00000E+00  9.000E+00
      25     1     1     2     0     0 -1.171510124E+02  2.722443704E+02  1.030212801E+02  3.377569261E+02  1.250000000E+02  0.00000E+00  9.000E+00
      21     1     1     2   502   511 -1.782280034E+01 -1.108470792E+01  8.780321167E+00  2.275119780E+01  2.920019320E-07  0.00000E+00  9.000E+00
#rwgt            1           1   3.5535554035990118E-002           8      207160           0
</event>
<event>
      5   9999  3.79277E-02  7.65696E+01 -1.00000E+00  1.29278E-01
      21    -1     0     0   502   512  0.000000000E+00  0.000000000E+00  1.226573089E+02  1.226573089E+02  0.000000000E+00  0.00000E+00  9.000E+00
      21    -1     0     0   501   502  0.000000000E+00  0.000000000E+00 -3.885938736E+02  3.885938736E+02  0.000000000E+00  0.00000E+00  9.000E+00
      25     1     1     2     0     0  2.491410994E+00  6.737259668E+01 -1.357793765E+01  1.426696685E+02  1.250000000E+02  0.00000E+00  9.000E+00
      25     1     1     2     0     0 -7.318400148E+01 -9.679128244E+01 -2.305467115E+02  2.889658052E+02  1.250000000E+02  0.00000E+00  9.000E+00
      21     1     1     2   501   512  7.069259048E+01  2.941868576E+01 -2.181191562E+01  7.961570878E+01  1.390207266E-06  0.00000E+00  9.000E+00
#rwgt            1           1   4.7523059201344468E-002           8      207407           0
</event>
<event>
      5   9999  3.79277E-02  1.51502E+01 -1.00000E+00  1.76977E-01
      21    -1     0     0   502   501  0.000000000E+00  0.000000000E+00  8.654391571E+01  8.654391571E+01  0.000000000E+00  0.00000E+00  9.000E+00
      21    -1     0     0   501   511  0.000000000E+00  0.000000000E+00 -4.115547783E+02  4.115547783E+02  0.000000000E+00  0.00000E+00  9.000E+00
      25     1     1     2     0     0 -5.981362672E+01 -6.650275564E+01 -2.780240002E+01  1.561994235E+02  1.250000000E+02  0.00000E+00  9.000E+00
      25     1     1     2     0     0  4.747490101E+01  7.529397071E+01 -2.631731428E+02  3.046443030E+02  1.250000000E+02  0.00000E+00  9.000E+00
      21     1     1     2   502   511  1.233872571E+01 -8.791215066E+00 -3.403531969E+01  3.725496747E+01  6.743495762E-07  0.00000E+00  9.000E+00
#rwgt            1           1   3.3069914782923648E-002           8      207704           0
</event>
<event>
      5   9999  3.79277E-02  7.91406E+01 -1.00000E+00  1.28577E-01
      21    -1     0     0   502   512  0.000000000E+00  0.000000000E+00  2.490573176E+02  2.490573176E+02  0.000000000E+00  0.00000E+00  9.000E+00
      21    -1     0     0   501   502  0.000000000E+00  0.000000000E+00 -1.042084992E+03  1.042084992E+03  0.000000000E+00  0.00000E+00  9.000E+00
      25     1     1     2     0     0  3.602275934E+01 -2.361668795E+01 -7.953803803E+02  8.062941997E+02  1.250000000E+02  0.00000E+00  9.000E+00
      25     1     1     2     0     0  4.196668461E+01  3.706607973E+01 -2.142223645E+02  2.542662352E+02  1.250000000E+02  0.00000E+00  9.000E+00
      21     1     1     2   501   512 -7.798944394E+01 -1.344939178E+01  2.165750708E+02  2.305818744E+02  4.672030912E-06  0.00000E+00  9.000E+00
#rwgt            2          11   8.5339141257766114E-003           8      208151           0
</event>
<event>
      5   9999  3.79277E-02  1.21363E+01 -1.00000E+00  1.86514E-01
      21    -1     0     0   502   511  0.000000000E+00  0.000000000E+00  2.160550392E+02  2.160550392E+02  0.000000000E+00  0.00000E+00  9.000E+00
      21    -1     0     0   501   502  0.000000000E+00  0.000000000E+00 -5.924630167E+02  5.924630167E+02  0.000000000E+00  0.00000E+00  9.000E+00
      25     1     1     2     0     0  2.056763388E+02 -2.136482018E+01 -2.129646372E+02  3.220840707E+02  1.250000000E+02  0.00000E+00  9.000E+00
      25     1     1     2     0     0 -1.976722265E+02  1.224207776E+01 -2.823901152E+02  3.668696700E+02  1.250000000E+02  0.00000E+00  9.000E+00
      21     1     1     2   501   511 -8.004112356E+00  9.122742425E+00  1.189467748E+02  1.195643152E+02  1.907348633E-06  0.00000E+00  9.000E+00
#rwgt            1           1   4.1623695104774393E-002           8      208231           0
</event>
<event>
      5   9999  3.79277E-02  1.76710E+01 -1.00000E+00  1.70931E-01
      21    -1     0     0   502   501  0.000000000E+00  0.000000000E+00  3.402064293E+02  3.402064293E+02  0.000000000E+00  0.00000E+00  9.000E+00
      21    -1     0     0   512   502  0.000000000E+00  0.000000000E+00 -8.710588422E+02  8.710588422E+02  0.000000000E+00  0.00000E+00  9.000E+00
      25     1     1     2     0     0 -1.430313592E+02  1.214303682E+02 -1.399075315E+02  2.653345462E+02  1.250000000E+02  0.00000E+00  9.000E+00
      25     1     1     2     0     0  1.323766949E+02 -1.355279924E+02  2.309340345E+02  3.238007943E+02  1.250000000E+02  0.00000E+00  9.000E+00
      21     1     1     2   512   501  1.065466427E+01  1.409762424E+01 -6.218789160E+02  6.221299310E+02  7.629394531E-06  0.00000E+00  9.000E+00
#rwgt            1           1   3.3138833852988631E-002           8      208396           0
</event>
<event>
      5   9999  3.79277E-02  1.98368E+01 -1.00000E+00  1.66663E-01
      21    -1     0     0   502   501  0.000000000E+00  0.000000000E+00  4.778574335E+02  4.778574335E+02  0.000000000E+00  0.00000E+00  9.000E+00
      21    -1     0     0   501   511  0.000000000E+00  0.000000000E+00 -1.614811106E+02  1.614811106E+02  0.000000000E+00  0.00000E+00  9.000E+00
      25     1     1     2     0     0 -1.612199154E+01  8.129915263E+01  5.200363165E+01  1.587414518E+02  1.250000000E+02  0.00000E+00  9.000E+00
      25     1     1     2     0     0  1.019811763E+00 -9.416088589E+01  3.549252564E+02  3.878972159E+02  1.250000000E+02  0.00000E+00  9.000E+00
      21     1     1     2   502   511  1.510217978E+01  1.286173327E+01 -9.055256517E+01  9.269987635E+01  1.348699152E-06  0.00000E+00  9.000E+00
#rwgt            1           1   2.7890990210228339E-002           8      208697           0
</event>
<event>
      5   9999  3.79277E-02  5.36354E+01 -1.00000E+00  1.37358E-01
      21    -1     0     0   502   501  0.000000000E+00  0.000000000E+00  6.963956426E+02  6.963956426E+02  0.000000000E+00  0.00000E+00  9.000E+00
      21    -1     0     0   501   512  0.000000000E+00  0.000000000E+00 -7.507561101E+02  7.507561101E+02  0.000000000E+00  0.00000E+00  9.000E+00
      25     1     1     2     0     0 -1.085427235E+02  5.382363058E+01  4.721621035E+02  5.032301243E+02  1.250000000E+02  0.00000E+00  9.000E+00
      25     1     1     2     0     0  1.460262247E+02 -1.546028061E+01  1.628875446E+02  2.524282685E+02  1.250000000E+02  0.00000E+00  9.000E+00
      21     1     1     2   502   512 -3.748350120E+01 -3.836334997E+01 -6.894101155E+02  6.914933599E+02  1.078959322E-05  0.00000E+00  9.000E+00
#rwgt            1           1   4.8776072900333679E-002           8      208928           0
</event>
<event>
      5   9999  3.79277E-02  2.94608E+01 -1.00000E+00  1.53589E-01
      21    -1     0     0   502   501  0.000000000E+00  0.000000000E+00  1.538637243E+02  1.538637243E+02  0.000000000E+00  0.00000E+00  9.000E+00
      21    -1     0     0   501   511  0.000000000E+00  0.000000000E+00 -3.057887148E+02  3.057887148E+02  0.000000000E+00  0.00000E+00  9.000E+00
      25     1     1     2     0     0 -5.307183343E+01  1.255684998E+02 -1.364827320E+02  2.298621408E+02  1.250000000E+02  0.00000E+00  9.000E+00
      25     1     1     2     0     0  3.595396221E+01 -1.495458816E+02 -4.149792870E+00  1.982394484E+02  1.250000000E+02  0.00000E+00  9.000E+00
      21     1     1     2   502   511  1.711787122E+01  2.397738177E+01 -1.129246565E+01  3.155084994E+01  3.371747881E-07  0.00000E+00  9.000E+00
#rwgt            1           1   3.9763637361576183E-002           8      209047           0
</event>
<event>
      5   9999  3.79277E-02  5.25733E+01 -1.00000E+00  1.37843E-01
      21    -1     0     0   512   501  0.000000000E+00  0.000000000E+00  2.067960591E+02  2.067960591E+02  0.000000000E+00  0.00000E+00  9.000E+00
      21    -1     0     0   501   502  0.000000000E+00  0.000000000E+00 -3.513504293E+02  3.513504293E+02  0.000000000E+00  0.00000E+00  9.000E+00
      25     1     1     2     0     0  1.929422256E+02  7.014413390E+01 -1.524407898E+01  2.408407854E+02  1.250000000E+02  0.00000E+00  9.000E+00
      25     1     1     2     0     0 -1.990573378E+02 -1.792767836E+01 -1.176227893E+02  2.634489437E+02  1.250000000E+02  0.00000E+00  9.000E+00
      21     1     1     2   512   502  6.115112137E+00 -5.221645554E+01 -1.168750185E+01  5.385675933E+01  1.143415337E-06  0.00000E+00  9.000E+00
#rwgt            1           1   4.9059658022153778E-002           8      209567           0
</event>
<event>
      5   9999  3.79277E-02  1.26925E+02 -1.00000E+00  1.19343E-01
      21    -1     0     0   502   501  0.000000000E+00  0.000000000E+00  1.628659573E+02  1.628659573E+02  0.000000000E+00  0.00000E+00  9.000E+00
      21    -1     0     0   501   511  0.000000000E+00  0.000000000E+00 -5.199985557E+02  5.199985557E+02  0.000000000E+00  0.00000E+00  9.000E+00
      25     1     1     2     0     0  1.056054599E+02  1.008975518E+02 -2.159966850E+02  2.891580831E+02  1.250000000E+02  0.00000E+00  9.000E+00
      25     1     1     2     0     0 -2.093047481E+01 -1.954493333E+02 -5.219480729E+01  2.387212278E+02  1.250000000E+02  0.00000E+00  9.000E+00
      21     1     1     2   502   511 -8.467498511E+01  9.455178154E+01 -8.894110618E+01  1.549852021E+02  2.861022949E-06  0.00000E+00  9.000E+00
#rwgt            1           1   3.1166937745718843E-002           8      209763           0
</event>
<event>
      5   9999  3.79277E-02  7.31340E+01 -1.00000E+00  1.30265E-01
      21    -1     0     0   502   501  0.000000000E+00  0.000000000E+00  1.798090787E+03  1.798090787E+03  0.000000000E+00  0.00000E+00  9.000E+00
      21    -1     0     0   512   502  0.000000000E+00  0.000000000E+00 -3.774247702E+01  3.774247702E+01  0.000000000E+00  0.00000E+00  9.000E+00
      25     1     1     2     0     0  3.159046692E+00  1.357264256E+02  1.280745998E+03  1.293973320E+03  1.250000000E+02  0.00000E+00  9.000E+00
      25     1     1     2     0     0 -5.517395053E+01 -8.431602549E+01  4.123481451E+02  4.425035025E+02  1.250000000E+02  0.00000E+00  9.000E+00
      21     1     1     2   512   501  5.201490384E+01 -5.141040013E+01  6.725416709E+01  9.935644143E+01  1.907348633E-06  0.00000E+00  9.000E+00
#rwgt            1           1   4.1527862009969205E-002           8      209826           0
</event>
<event>
      5   9999  3.79277E-02  4.47352E+01 -1.00000E+00  1.41890E-01
      21    -1     0     0   502   501  0.000000000E+00  0.000000000E+00  4.656691964E+01  4.656691964E+01  0.000000000E+00  0.00000E+00  9.000E+00
      21    -1     0     0   511   502  0.000000000E+00  0.000000000E+00 -1.208308151E+03  1.208308151E+03  0.000000000E+00  0.00000E+00  9.000E+00
      25     1     1     2     0     0 -5.987236629E+01  1.410084728E+02 -3.938288104E+02  4.406747344E+02  1.250000000E+02  0.00000E+00  9.000E+00
      25     1     1     2     0     0  3.521249877E+01 -1.783331267E+02 -5.678461764E+02  6.091936509E+02  1.250000000E+02  0.00000E+00  9.000E+00
      21     1     1     2   511   501  2.465986752E+01  3.732465396E+01 -2.000662446E+02  2.050066855E+02  0.000000000E+00  0.00000E+00  9.000E+00
#rwgt            1           1   3.7072327133380975E-002           8      209879           0
</event>
<event>
      5   9999  3.79277E-02  1.18592E+02 -1.00000E+00  1.20586E-01
      21    -1     0     0   512   501  0.000000000E+00  0.000000000E+00  2.443481627E+03  2.443481627E+03  0.000000000E+00  0.00000E+00  9.000E+00
      21    -1     0     0   501   502  0.000000000E+00  0.000000000E+00 -7.097571456E+01  7.097571456E+01  0.000000000E+00  0.00000E+00  9.000E+00
      25     1     1     2     0     0  3.827644750E+02  5.556334206E+01  1.147695171E+03  1.217548822E+03  1.250000000E+02  0.00000E+00  9.000E+00
      25     1     1     2     0     0 -2.685088270E+02 -2.378910614E+01  7.315207757E+02  7.895635231E+02  1.250000000E+02  0.00000E+00  9.000E+00
      21     1     1     2   512   502 -1.142556481E+02 -3.177423592E+01  4.932899652E+02  5.073449960E+02  5.394796609E-06  0.00000E+00  9.000E+00
#rwgt            2          11   1.9188376952408216E-003           8      210045           0
</event>
<event>
      5   9999  3.79277E-02  1.32744E+01 -1.00000E+00  1.82534E-01
      21    -1     0     0   502   501  0.000000000E+00  0.000000000E+00  2.799609223E+03  2.799609223E+03  0.000000000E+00  0.00000E+00  9.000E+00
      21    -1     0     0   501   511  0.000000000E+00  0.000000000E+00 -2.061686658E+01  2.061686658E+01  0.000000000E+00  0.00000E+00  9.000E+00
      25     1     1     2     0     0 -1.245508594E+02 -5.109373679E+01  5.999704846E+02  6.274655918E+02  1.250000000E+02  0.00000E+00  9.000E+00
      25     1     1     2     0     0  1.151889498E+02  4.168290671E+01  2.169196395E+03  2.176245381E+03  1.250000000E+02  0.00000E+00  9.000E+00
      21     1     1     2   502   511  9.361909560E+00  9.410830082E+00  9.825476167E+00  1.651511597E+01  6.194296387E-07  0.00000E+00  9.000E+00
#rwgt            1           1   4.2315283375440202E-002           8      210080           0
</event>
<event>
      5   9999  3.79277E-02  4.60199E+01 -1.00000E+00  1.41163E-01
      21    -1     0     0   502   501  0.000000000E+00  0.000000000E+00  1.077558235E+03  1.077558235E+03  0.000000000E+00  0.00000E+00  9.000E+00
      21    -1     0     0   512   502  0.000000000E+00  0.000000000E+00 -6.034536154E+01  6.034536154E+01  0.000000000E+00  0.00000E+00  9.000E+00
      25     1     1     2     0     0 -1.579475618E+02 -1.240294687E+02  5.472670225E+02  5.962020927E+02  1.250000000E+02  0.00000E+00  9.000E+00
      25     1     1     2     0     0  1.164579164E+02  1.439401792E+02  3.878111112E+02  4.475529907E+02  1.250000000E+02  0.00000E+00  9.000E+00
      21     1     1     2   512   501  4.148964538E+01 -1.991071051E+01  8.213473987E+01  9.414851331E+01  9.536743164E-07  0.00000E+00  9.000E+00
#rwgt            1           1   4.2432565687511019E-002           8      210338           0
</event>
<event>
      5   9999  3.79277E-02  4.52305E+01 -1.00000E+00  1.41606E-01
       2    -1     0     0   502     0  0.000000000E+00  0.000000000E+00  3.141024616E+03  3.141024616E+03  0.000000000E+00  0.00000E+00  9.000E+00
      21    -1     0     0   501   502  0.000000000E+00  0.000000000E+00 -2.545388247E+01  2.545388247E+01  0.000000000E+00  0.00000E+00  9.000E+00
      25     1     1     2     0     0 -7.055397262E+01 -3.274967129E+01  2.862540996E+02  3.218956563E+02  1.250000000E+02  0.00000E+00  9.000E+00
      25     1     1     2     0     0  2.536903920E+01  3.478028260E+01  5.826392194E+02  5.974501788E+02  1.250000000E+02  0.00000E+00  9.000E+00
       2     1     1     2   501     0  4.518493342E+01 -2.030611304E+00  2.246677414E+03  2.247132663E+03  0.000000000E+00  0.00000E+00  9.000E+00
#rwgt            1           1  0.10814188671418426                8      210409           0
</event>
<event>
      5   9999  3.79277E-02  4.50819E+01 -1.00000E+00  1.41691E-01
      21    -1     0     0   502   501  0.000000000E+00  0.000000000E+00  5.752535880E+02  5.752535880E+02  0.000000000E+00  0.00000E+00  9.000E+00
      21    -1     0     0   501   511  0.000000000E+00  0.000000000E+00 -1.356460516E+02  1.356460516E+02  0.000000000E+00  0.00000E+00  9.000E+00
      25     1     1     2     0     0 -3.016198895E+01  1.504171639E+02  3.285110087E+02  3.835095196E+02  1.250000000E+02  0.00000E+00  9.000E+00
      25     1     1     2     0     0 -1.491411079E+01 -1.496931637E+02  1.658675675E+02  2.564517965E+02  1.250000000E+02  0.00000E+00  9.000E+00
      21     1     1     2   502   511  4.507609974E+01 -7.240001605E-01 -5.477103986E+01  7.093832358E+01  6.743495762E-07  0.00000E+00  9.000E+00
#rwgt            1           1   3.2133940444039111E-002           8      210520           0
</event>
<event>
      5   9999  3.79277E-02  1.32524E+01 -1.00000E+00  1.82606E-01
      21    -1     0     0   502   501  0.000000000E+00  0.000000000E+00  1.939425926E+03  1.939425926E+03  0.000000000E+00  0.00000E+00  9.000E+00
      21    -1     0     0   501   512  0.000000000E+00  0.000000000E+00 -2.585826983E+01  2.585826983E+01  0.000000000E+00  0.00000E+00  9.000E+00
      25     1     1     2     0     0  8.208456278E+01 -1.441222678E+02  8.211498886E+02  8.470072273E+02  1.250000000E+02  0.00000E+00  9.000E+00
      25     1     1     2     0     0 -8.502789697E+01  1.570436471E+02  1.071978201E+03  1.093917143E+03  1.250000000E+02  0.00000E+00  9.000E+00
      21     1     1     2   502   512  2.943334193E+00 -1.292137934E+01  2.043956615E+01  2.435982603E+01  0.000000000E+00  0.00000E+00  9.000E+00
#rwgt            1           1  0.11749633634594221                8      210667           0
</event>
<event>
      5   9999  3.79277E-02  2.01824E+01 -1.00000E+00  1.66044E-01
      21    -1     0     0   502   501  0.000000000E+00  0.000000000E+00  1.333819441E+02  1.333819441E+02  0.000000000E+00  0.00000E+00  9.000E+00
      21    -1     0     0   511   502  0.000000000E+00  0.000000000E+00 -4.591766572E+02  4.591766572E+02  0.000000000E+00  0.00000E+00  9.000E+00
      25     1     1     2     0     0 -5.366536910E+01  1.445816888E+02 -1.357538203E+02  2.404951898E+02  1.250000000E+02  0.00000E+00  9.000E+00
      25     1     1     2     0     0  4.162386483E+01 -1.607783622E+02 -5.431153424E+01  2.148417339E+02  1.250000000E+02  0.00000E+00  9.000E+00
      21     1     1     2   511   501  1.204150427E+01  1.619667334E+01 -1.357293585E+02  1.372216776E+02  1.907348633E-06  0.00000E+00  9.000E+00
#rwgt            1           1   3.4838002836030744E-002           8      210897           0
</event>
<event>
      5   9999  3.79277E-02  3.89999E+01 -1.00000E+00  1.45525E-01
      21    -1     0     0   502   501  0.000000000E+00  0.000000000E+00  6.337408992E+02  6.337408992E+02  0.000000000E+00  0.00000E+00  9.000E+00
      21    -1     0     0   512   502  0.000000000E+00  0.000000000E+00 -2.155323258E+02  2.155323258E+02  0.000000000E+00  0.00000E+00  9.000E+00
      25     1     1     2     0     0 -1.696019316E+02  1.419702885E+02  1.050093206E+02  2.749042296E+02  1.250000000E+02  0.00000E+00  9.000E+00
      25     1     1     2     0     0  1.891469161E+02 -1.757191463E+02  3.924143755E+02  4.860738796E+02  1.250000000E+02  0.00000E+00  9.000E+00
      21     1     1     2   512   501 -1.954498448E+01  3.374885787E+01 -7.921512271E+01  8.829511590E+01  9.536743164E-07  0.00000E+00  9.000E+00
#rwgt            1           1   3.2668726733702594E-002           8      211059           0
</event>
<event>
      5   9999  3.79277E-02  2.90459E+01 -1.00000E+00  1.54021E-01
      -4    -1     0     0     0   501  0.000000000E+00  0.000000000E+00  1.779522034E+02  1.779522034E+02  0.000000000E+00  0.00000E+00  9.000E+00
      21    -1     0     0   501   502  0.000000000E+00  0.000000000E+00 -2.240688265E+02  2.240688265E+02  0.000000000E+00  0.00000E+00  9.000E+00
      25     1     1     2     0     0  2.166084503E+01  7.448706901E+01 -1.255390197E+02  1.933974176E+02  1.250000000E+02  0.00000E+00  9.000E+00
      25     1     1     2     0     0 -2.187185623E+01 -1.035322131E+02  6.511174519E+01  1.762436853E+02  1.250000000E+02  0.00000E+00  9.000E+00
      -4     1     1     2     0   502  2.110112080E-01  2.904514413E+01  1.431065154E+01  3.237992697E+01  4.460403188E-07  0.00000E+00  9.000E+00
#rwgt            1           1   4.2561888769313487E-002           8      211175           0
</event>
<event>
      5   9999  3.79277E-02  4.26233E+01 -1.00000E+00  1.43150E-01
      21    -1     0     0   502   501  0.000000000E+00  0.000000000E+00  2.553050856E+02  2.553050856E+02  0.000000000E+00  0.00000E+00  9.000E+00
      -2    -1     0     0     0   502  0.000000000E+00  0.000000000E+00 -8.745892711E+02  8.745892711E+02  0.000000000E+00  0.00000E+00  9.000E+00
      25     1     1     2     0     0 -4.059102292E+01  5.067540254E+01 -3.649709184E+01  1.455082997E+02  1.250000000E+02  0.00000E+00  9.000E+00
      25     1     1     2     0     0  4.690586202E+01 -9.282830343E+01  1.671736285E+02  2.332150850E+02  1.250000000E+02  0.00000E+00  9.000E+00
      -2     1     1     2     0   501 -6.314839093E+00  4.215290089E+01 -7.499607222E+02  7.511709719E+02  1.078959322E-05  0.00000E+00  9.000E+00
#rwgt            1           1   3.6226499156710952E-002           8      211303           0
</event>
<event>
      5   9999 -3.79277E-02  1.70415E+01 -1.00000E+00  1.72317E-01
      21    -1     0     0   502   501  0.000000000E+00  0.000000000E+00  7.522196063E+02  7.522196063E+02  0.000000000E+00  0.00000E+00  9.000E+00
      21    -1     0     0   511   502  0.000000000E+00  0.000000000E+00 -9.866645169E+01  9.866645169E+01  0.000000000E+00  0.00000E+00  9.000E+00
      25     1     1     2     0     0 -2.272859221E+02  3.979791966E+01  3.621435174E+02  4.472311393E+02  1.250000000E+02  0.00000E+00  9.000E+00
      25     1     1     2     0     0  2.125835842E+02 -4.841493287E+01  2.935997606E+02  3.864732919E+02  1.250000000E+02  0.00000E+00  9.000E+00
      21     1     1     2   511   501  1.470233789E+01  8.617013217E+00 -2.190123370E+00  1.718162672E+01  3.781490785E-07  0.00000E+00  9.000E+00
#rwgt            1           1 -0.24208561646057034                8      211386           0
</event>
<event>
      5   9999  3.79277E-02  3.58272E+01 -1.00000E+00  1.47871E-01
      21    -1     0     0   502   501  0.000000000E+00  0.000000000E+00  7.271980012E+02  7.271980012E+02  0.000000000E+00  0.00000E+00  9.000E+00
      21    -1     0     0   512   502  0.000000000E+00  0.000000000E+00 -1.106096651E+02  1.106096651E+02  0.000000000E+00  0.00000E+00  9.000E+00
      25     1     1     2     0     0 -6.636723214E+01  1.525543428E+02  1.931680923E+02  2.839301831E+02  1.250000000E+02  0.00000E+00  9.000E+00
      25     1     1     2     0     0  3.138210832E+01 -1.448323899E+02  4.621199946E+02  5.011398480E+02  1.250000000E+02  0.00000E+00  9.000E+00
      21     1     1     2   512   501  3.498512381E+01 -7.721952932E+00 -3.869975084E+01  5.273763515E+01  1.430511475E-06  0.00000E+00  9.000E+00
#rwgt            1           1   3.9936003953045349E-002           8      211686           0
</event>
<event>
      5   9999  3.79277E-02  1.46615E+02 -1.00000E+00  1.16788E-01
       2    -1     0     0   502     0  0.000000000E+00  0.000000000E+00  3.430024850E+03  3.430024850E+03  0.000000000E+00  0.00000E+00  9.000E+00
      21    -1     0     0   501   502  0.000000000E+00  0.000000000E+00 -3.835910572E+02  3.835910572E+02  0.000000000E+00  0.00000E+00  9.000E+00
      25     1     1     2     0     0  4.418240054E+01  1.221444386E+02 -2.301602279E+02  2.923526619E+02  1.250000000E+02  0.00000E+00  9.000E+00
      25     1     1     2     0     0  1.001881759E+02 -9.658833942E+01 -4.825337148E+01  1.931847969E+02  1.250000000E+02  0.00000E+00  9.000E+00
       2     1     1     2   501     0 -1.443705764E+02 -2.555609915E+01  3.324847392E+03  3.328078448E+03  0.000000000E+00  0.00000E+00  9.000E+00
#rwgt            1           1   2.4907788383909509E-002           8      211819           0
</event>
<event>
      5   9999  3.79277E-02  8.45816E+00 -1.00000E+00  2.04558E-01
      21    -1     0     0   502   511  0.000000000E+00  0.000000000E+00  5.660825942E+01  5.660825942E+01  0.000000000E+00  0.00000E+00  9.000E+00
      21    -1     0     0   501   502  0.000000000E+00  0.000000000E+00 -1.068372848E+03  1.068372848E+03  0.000000000E+00  0.00000E+00  9.000E+00
      25     1     1     2     0     0 -2.821011853E+01  1.636328927E+02 -7.274552589E+02  7.565630761E+02  1.250000000E+02  0.00000E+00  9.000E+00
      25     1     1     2     0     0  1.994192921E+01 -1.654154398E+02 -2.908393813E+02  3.577324335E+02  1.250000000E+02  0.00000E+00  9.000E+00
      21     1     1     2   501   511  8.268189324E+00  1.782547101E+00  6.530051561E+00  1.068559789E+01  6.899736466E-07  0.00000E+00  9.000E+00
#rwgt            1           1   4.9698023614829910E-002           8      211867           0
</event>
<event>
      5   9999  3.79277E-02  1.36753E+02 -1.00000E+00  1.18008E-01
      21    -1     0     0   502   501  0.000000000E+00  0.000000000E+00  3.871127220E+02  3.871127220E+02  0.000000000E+00  0.00000E+00  9.000E+00
      21    -1     0     0   512   502  0.000000000E+00  0.000000000E+00 -6.321244423E+02  6.321244423E+02  0.000000000E+00  0.00000E+00  9.000E+00
      25     1     1     2     0     0 -1.536660272E+02 -3.468923661E+02  1.052200348E+02  4.130905679E+02  1.250000000E+02  0.00000E+00  9.000E+00
      25     1     1     2     0     0  3.612088437E+01  2.770037621E+02 -1.017366858E+02  3.225076057E+02  1.250000000E+02  0.00000E+00  9.000E+00
      21     1     1     2   512   501  1.175451428E+02  6.988860401E+01 -2.484950693E+02  2.836389907E+02  4.672030912E-06  0.00000E+00  9.000E+00
#rwgt            1           1  0.12950232408438894                8      212120           0
</event>
<event>
      5   9999  3.79277E-02  4.51109E+01 -1.00000E+00  1.41674E-01
      21    -1     0     0   502   501  0.000000000E+00  0.000000000E+00  3.954229738E+02  3.954229738E+02  0.000000000E+00  0.00000E+00  9.000E+00
      21    -1     0     0   511   502  0.000000000E+00  0.000000000E+00 -3.497867775E+02  3.497867775E+02  0.000000000E+00  0.00000E+00  9.000E+00
      25     1     1     2     0     0  1.440272509E+01  4.335506789E+01  3.021598043E+02  3.301706342E+02  1.250000000E+02  0.00000E+00  9.000E+00
      25     1     1     2     0     0  2.758017164E+01 -5.986060388E+01  1.286833312E+01  1.418962711E+02  1.250000000E+02  0.00000E+00  9.000E+00
      21     1     1     2   511   501 -4.198289673E+01  1.650553600E+01 -2.693919411E+02  2.731428459E+02  0.000000000E+00  0.00000E+00  9.000E+00
#rwgt            1           1   4.3356110077704388E-002           8      212264           0
</event>
<event>
      5   9999  3.79277E-02  5.46601E+01 -1.00000E+00  1.36903E-01
       1    -1     0     0   502     0  0.000000000E+00  0.000000000E+00  1.196498659E+03  1.196498659E+03  0.000000000E+00  0.00000E+00  9.000E+00
      21    -1     0     0   501   502  0.000000000E+00  0.000000000E+00 -7.281658397E+01  7.281658397E+01  0.000000000E+00  0.00000E+00  9.000E+00
      25     1     1     2     0     0 -1.254462056E+02 -3.915002181E+01  1.906133517E+02  2.631120000E+02  1.250000000E+02  0.00000E+00  9.000E+00
      25     1     1     2     0     0  1.778875326E+02  5.456537537E+01  3.199840745E+02  3.906867829E+02  1.250000000E+02  0.00000E+00  9.000E+00
       1     1     1     2   501     0 -5.244132704E+01 -1.541535356E+01  6.130846493E+02  6.155164605E+02  1.078959322E-05  0.00000E+00  9.000E+00
#rwgt            1           1   3.7537324583518265E-002           8      212391           0
</event>
<event>
      5   9999  3.79277E-02  3.16957E+01 -1.00000E+00  1.51400E-01
      21    -1     0     0   511   501  0.000000000E+00  0.000000000E+00  1.793049331E+02  1.793049331E+02  0.000000000E+00  0.00000E+00  9.000E+00
      21    -1     0     0   501   502  0.000000000E+00  0.000000000E+00 -2.344671858E+02  2.344671858E+02  0.000000000E+00  0.00000E+00  9.000E+00
      25     1     1     2     0     0 -7.280579832E+01  4.370097027E+01  3.121928373E+01  1.543052259E+02  1.250000000E+02  0.00000E+00  9.000E+00
      25     1     1     2     0     0  9.519694831E+01 -2.126759000E+01 -1.303547590E+02  2.052611326E+02  1.250000000E+02  0.00000E+00  9.000E+00
      21     1     1     2   511   502 -2.239114999E+01 -2.243338027E+01  4.397322261E+01  5.420576035E+01  0.000000000E+00  0.00000E+00  9.000E+00
#rwgt            1           1   3.6964185350514087E-002           8      212487           0
</event>
<event>
      5   9999  3.79277E-02  3.92465E+01 -1.00000E+00  1.45354E-01
      21    -1     0     0   502   501  0.000000000E+00  0.000000000E+00  5.269126579E+02  5.269126579E+02  0.000000000E+00  0.00000E+00  9.000E+00
      21    -1     0     0   512   502  0.000000000E+00  0.000000000E+00 -2.450074562E+02  2.450074562E+02  0.000000000E+00  0.00000E+00  9.000E+00
      25     1     1     2     0     0 -1.938311463E+02  1.535519979E+02 -7.342106865E+01  2.866433022E+02  1.250000000E+02  0.00000E+00  9.000E+00
      25     1     1     2     0     0  1.731564012E+02 -1.869112396E+02  3.406389776E+02  4.433721505E+02  1.250000000E+02  0.00000E+00  9.000E+00
      21     1     1     2   512   501  2.067474509E+01  3.335924163E+01  1.468729267E+01  4.190466147E+01  2.920019320E-07  0.00000E+00  9.000E+00
#rwgt            1           1   1.8455051308733775E-002           8      212730           0
</event>
<event>
      5   9999  3.79277E-02  9.36414E+01 -1.00000E+00  1.25125E-01
      21    -1     0     0   502   511  0.000000000E+00  0.000000000E+00  6.998709349E+02  6.998709349E+02  0.000000000E+00  0.00000E+00  9.000E+00
      21    -1     0     0   501   502  0.000000000E+00  0.000000000E+00 -1.698182036E+02  1.698182036E+02  0.000000000E+00  0.00000E+00  9.000E+00
      25     1     1     2     0     0  2.932718660E+01  1.158729895E+02  2.821604264E+02  3.309473369E+02  1.250000000E+02  0.00000E+00  9.000E+00
      25     1     1     2     0     0 -3.993290411E+01 -2.089118182E+02 -2.715048080E+01  2.481953529E+02  1.250000000E+02  0.00000E+00  9.000E+00
      21     1     1     2   501   511  1.060571751E+01  9.303882872E+01  2.750427856E+02  2.905464486E+02  3.814697266E-06  0.00000E+00  9.000E+00
#rwgt            1           1   3.4263873250987537E-002           8      212872           0
</event>
<event>
      5   9999  3.79277E-02  3.45007E+01 -1.00000E+00  1.48940E-01
      -3    -1     0     0     0   501  0.000000000E+00  0.000000000E+00  1.032524635E+03  1.032524635E+03  0.000000000E+00  0.00000E+00  9.000E+00
      21    -1     0     0   501   502  0.000000000E+00  0.000000000E+00 -1.270717102E+02  1.270717102E+02  0.000000000E+00  0.00000E+00  9.000E+00
      25     1     1     2     0     0 -1.048612305E+02 -6.162869778E+01 -4.041436507E+01  1.790315474E+02  1.250000000E+02  0.00000E+00  9.000E+00
      25     1     1     2     0     0  9.603877751E+01  9.498234854E+01  4.904543295E+02  5.238468695E+02  1.250000000E+02  0.00000E+00  9.000E+00
      -3     1     1     2     0   502  8.822452947E+00 -3.335365075E+01  4.554129602E+02  4.567179283E+02  7.629394531E-06  0.00000E+00  9.000E+00
#rwgt            1           1   3.5748069121024836E-002           8      212959           0
</event>
<event>
      5   9999  3.79277E-02  2.20614E+02 -1.00000E+00  1.10119E-01
      21    -1     0     0   511   501  0.000000000E+00  0.000000000E+00  2.797127236E+02  2.797127236E+02  0.000000000E+00  0.00000E+00  9.000E+00
      21    -1     0     0   501   502  0.000000000E+00  0.000000000E+00 -5.100169455E+02  5.100169455E+02  0.000000000E+00  0.00000E+00  9.000E+00
      25     1     1     2     0     0 -1.382316699E+02 -2.457258494E+02 -2.770379881E+02  4.145651148E+02  1.250000000E+02  0.00000E+00  9.000E+00
      25     1     1     2     0     0 -9.566170858E+00  8.193774105E+01  3.733019460E+01  1.543497602E+02  1.250000000E+02  0.00000E+00  9.000E+00
      21     1     1     2   511   502  1.477978407E+02  1.637881083E+02  9.403571562E+00  2.208147942E+02  3.544346988E-06  0.00000E+00  9.000E+00
#rwgt            1           1   4.2223806875522699E-002           8      213148           0
</event>
<event>
      5   9999  3.79277E-02  7.31123E+01 -1.00000E+00  1.30271E-01
      21    -1     0     0   512   501  0.000000000E+00  0.000000000E+00  1.195734252E+03  1.195734252E+03  0.000000000E+00  0.00000E+00  9.000E+00
      21    -1     0     0   501   502  0.000000000E+00  0.000000000E+00 -2.403873004E+02  2.403873004E+02  0.000000000E+00  0.00000E+00  9.000E+00
      25     1     1     2     0     0  1.751887176E+00  2.303594567E+02  4.707556757E+02  5.387990856E+02  1.250000000E+02  0.00000E+00  9.000E+00
      25     1     1     2     0     0 -7.368950080E+01 -2.434129521E+02 -1.057508025E+02  3.024702300E+02  1.250000000E+02  0.00000E+00  9.000E+00
      21     1     1     2   512   502  7.193761362E+01  1.305349541E+01  5.903420781E+02  5.948522364E+02  1.078959322E-05  0.00000E+00  9.000E+00
#rwgt            1           1   4.1385879072861211E-002           8      213197           0
</event>
<event>
      5   9999  3.79277E-02  1.34368E+02 -1.00000E+00  1.18320E-01
      21    -1     0     0   502   511  0.000000000E+00  0.000000000E+00  2.678754818E+02  2.678754818E+02  0.000000000E+00  0.00000E+00  9.000E+00
      21    -1     0     0   501   502  0.000000000E+00  0.000000000E+00 -4.500020264E+02  4.500020264E+02  0.000000000E+00  0.00000E+00  9.000E+00
      25     1     1     2     0     0  1.301536546E+02 -6.376870655E+01  1.230872482E+02  2.275563500E+02  1.250000000E+02  0.00000E+00  9.000E+00
      25     1     1     2     0     0 -1.330391337E+01  1.301083891E+02 -3.065414263E+02  3.559463908E+02  1.250000000E+02  0.00000E+00  9.000E+00
      21     1     1     2   501   511 -1.168497412E+02 -6.633968258E+01  1.327633570E+00  1.343747674E+02  1.486684902E-06  0.00000E+00  9.000E+00
#rwgt            1           1   3.5568801420521670E-002           8      213300           0
</event>
<event>
      5   9999  3.79277E-02  1.50519E+02 -1.00000E+00  1.16334E-01
      21    -1     0     0   502   501  0.000000000E+00  0.000000000E+00  7.353538198E+02  7.353538198E+02  0.000000000E+00  0.00000E+00  9.000E+00
      21    -1     0     0   512   502  0.000000000E+00  0.000000000E+00 -7.203416617E+02  7.203416617E+02  0.000000000E+00  0.00000E+00  9.000E+00
      25     1     1     2     0     0 -7.420672193E+01  1.185930473E+02  6.278297345E+02  6.552603482E+02  1.250000000E+02  0.00000E+00  9.000E+00
      25     1     1     2     0     0 -1.208408776E+01 -2.419211207E+02 -1.444681307E+02  3.084929409E+02  1.250000000E+02  0.00000E+00  9.000E+00
      21     1     1     2   512   501  8.629080969E+01  1.233280733E+02 -4.683494456E+02  4.919421925E+02  7.629394531E-06  0.00000E+00  9.000E+00
#rwgt            1           1   4.5499190418563110E-002           8      213524           0
</event>
<event>
      5   9999  3.79277E-02  2.90475E+01 -1.00000E+00  1.54019E-01
      21    -1     0     0   511   501  0.000000000E+00  0.000000000E+00  1.197335248E+03  1.197335248E+03  0.000000000E+00  0.00000E+00  9.000E+00
      21    -1     0     0   501   502  0.000000000E+00  0.000000000E+00 -2.071523021E+02  2.071523021E+02  0.000000000E+00  0.00000E+00  9.000E+00
      25     1     1     2     0     0  1.676721208E+02  9.832785281E+01  1.073467316E+03  1.098061649E+03  1.250000000E+02  0.00000E+00  9.000E+00
      25     1     1     2     0     0 -1.465667508E+02 -1.182858360E+02 -1.229023714E+02  2.573001056E+02  1.250000000E+02  0.00000E+00  9.000E+00
      21     1     1     2   511   502 -2.110537003E+01  1.995798321E+01  3.961800106E+01  4.912579512E+01  4.768371582E-07  0.00000E+00  9.000E+00
#rwgt            1           1   9.2820879363294653E-002           8      213608           0
</event>
<event>
      5   9999  3.79277E-02  1.13819E+02 -1.00000E+00  1.21351E-01
      21    -1     0     0   502   512  0.000000000E+00  0.000000000E+00  2.096420314E+02  2.096420314E+02  0.000000000E+00  0.00000E+00  9.000E+00
      21    -1     0     0   501   502  0.000000000E+00  0.000000000E+00 -2.678223030E+02  2.678223030E+02  0.000000000E+00  0.00000E+00  9.000E+00
      25     1     1     2     0     0  1.548791222E+02  4.284399032E+01 -6.566406123E+01  2.139156819E+02  1.250000000E+02  0.00000E+00  9.000E+00
      25     1     1     2     0     0 -6.950140800E+01  3.242457372E+01 -1.537977463E+01  1.474562178E+02  1.250000000E+02  0.00000E+00  9.000E+00
      21     1     1     2   501   512 -8.537771425E+01 -7.526856404E+01  2.286356423E+01  1.160924347E+02  8.259061849E-07  0.00000E+00  9.000E+00
#rwgt            1           1   2.6592510441483905E-002           8      213773           0
</event>
<event>
      5   9999 -3.79277E-02  4.03887E+01 -1.00000E+00  1.44580E-01
      21    -1     0     0   502   501  0.000000000E+00  0.000000000E+00  7.469162557E+01  7.469162557E+01  0.000000000E+00  0.00000E+00  9.000E+00
      21    -1     0     0   501   511  0.000000000E+00  0.000000000E+00 -1.001135860E+03  1.001135860E+03  0.000000000E+00  0.00000E+00  9.000E+00
      25     1     1     2     0     0 -1.009813479E+02  5.299307944E+01 -8.629319241E+01  1.899395013E+02  1.250000000E+02  0.00000E+00  9.000E+00
      25     1     1     2     0     0  6.147421835E+01 -6.138567506E+01 -2.388639092E+02  2.832459139E+02  1.250000000E+02  0.00000E+00  9.000E+00
      21     1     1     2   502   511  3.950712951E+01  8.392595627E+00 -6.012871325E+02  6.026420701E+02  7.629394531E-06  0.00000E+00  9.000E+00
#rwgt            1           1  -4.8722672130171549E-002           8      213838           0
</event>
<event>
      5   9999  3.79277E-02  1.09506E+01 -1.00000E+00  1.91306E-01
      21    -1     0     0   502   501  0.000000000E+00  0.000000000E+00  7.896735539E+02  7.896735539E+02  0.000000000E+00  0.00000E+00  9.000E+00
      21    -1     0     0   512   502  0.000000000E+00  0.000000000E+00 -4.891056436E+01  4.891056436E+01  0.000000000E+00  0.00000E+00  9.000E+00
      25     1     1     2     0     0 -8.103121442E+01 -9.004716486E+01  2.393966056E+02  2.959903451E+02  1.250000000E+02  0.00000E+00  9.000E+00
      25     1     1     2     0     0  7.378298299E+01  8.183871212E+01  5.044156536E+02  5.312265571E+02  1.250000000E+02  0.00000E+00  9.000E+00
      21     1     1     2   512   501  7.248231429E+00  8.208452736E+00 -3.049269692E+00  1.136721605E+01  3.449868233E-07  0.00000E+00  9.000E+00
#rwgt            1           1   2.7856010023590939E-002           8      213981           0
</event>
<event>
      5   9999  3.79277E-02  3.80833E+01 -1.00000E+00  1.46175E-01
       1    -1     0     0   502     0  0.000000000E+00  0.000000000E+00  2.304469197E+02  2.304469197E+02  0.000000000E+00  0.00000E+00  9.000E+00
      21    -1     0     0   501   502  0.000000000E+00  0.000000000E+00 -4.997241200E+02  4.997241200E+02  0.000000000E+00  0.00000E+00  9.000E+00
      25     1     1     2     0     0 -9.151669784E+01 -5.210996991E+00 -1.823709676E+02  2.393462561E+02  1.250000000E+02  0.00000E+00  9.000E+00
      25     1     1     2     0     0  5.380132362E+01 -6.986790598E-02 -2.707774024E+02  3.030511326E+02  1.250000000E+02  0.00000E+00  9.000E+00
       1     1     1     2   501     0  3.771537422E+01  5.280864897E+00  1.838711697E+02  1.877736511E+02  0.000000000E+00  0.00000E+00  9.000E+00
#rwgt            1           1   8.9584573442306067E-002           8      214256           0
</event>
<event>
      5   9999 -3.79277E-02  5.52645E+01 -1.00000E+00  1.36640E-01
       2    -1     0     0   502     0  0.000000000E+00  0.000000000E+00  5.334243286E+02  5.334243286E+02  0.000000000E+00  0.00000E+00  9.000E+00
      21    -1     0     0   501   502  0.000000000E+00  0.000000000E+00 -6.219911941E+02  6.219911941E+02  0.000000000E+00  0.00000E+00  9.000E+00
      25     1     1     2     0     0 -2.641421481E+00 -9.196420656E+01 -3.997188417E+02  4.287942919E+02  1.250000000E+02  0.00000E+00  9.000E+00
      25     1     1     2     0     0  5.509354551E+01  7.455911507E+01 -1.768073494E+02  2.355423512E+02  1.250000000E+02  0.00000E+00  9.000E+00
       2     1     1     2   501     0 -5.245212403E+01  1.740509149E+01  4.879593256E+02  4.910788796E+02  0.000000000E+00  0.00000E+00  9.000E+00
#rwgt            1           1 -0.12120138531125875                8      214425           0
</event>
<event>
      5   9999  3.79277E-02  2.17235E+01 -1.00000E+00  1.63461E-01
      21    -1     0     0   502   501  0.000000000E+00  0.000000000E+00  1.002733257E+03  1.002733257E+03  0.000000000E+00  0.00000E+00  9.000E+00
      21    -1     0     0   501   511  0.000000000E+00  0.000000000E+00 -4.759475324E+02  4.759475324E+02  0.000000000E+00  0.00000E+00  9.000E+00
      25     1     1     2     0     0  1.898682912E+02  1.163175063E+02  5.480241231E+02  6.045950461E+02  1.250000000E+02  0.00000E+00  9.000E+00
      25     1     1     2     0     0 -1.923714712E+02 -9.473873405E+01  3.899941408E+02  4.622798292E+02  1.250000000E+02  0.00000E+00  9.000E+00
      21     1     1     2   502   511  2.503180020E+00 -2.157877229E+01 -4.112325394E+02  4.118059139E+02  5.394796609E-06  0.00000E+00  9.000E+00
#rwgt            1           1   4.7754944395716474E-002           8      214571           0
</event>
<event>
      5   9999  3.79277E-02  2.11990E+01 -1.00000E+00  1.64309E-01
      21    -1     0     0   512   501  0.000000000E+00  0.000000000E+00  3.180913786E+02  3.180913786E+02  0.000000000E+00  0.00000E+00  9.000E+00
      21    -1     0     0   501   502  0.000000000E+00  0.000000000E+00 -4.912730800E+02  4.912730800E+02  0.000000000E+00  0.00000E+00  9.000E+00
      25     1     1     2     0     0  6.394133380E+00  6.663243632E+01 -2.738287361E+01  1.444146401E+02  1.250000000E+02  0.00000E+00  9.000E+00
      25     1     1     2     0     0  1.363945034E+01 -5.970036286E+01 -3.929582675E+02  4.168829188E+02  1.250000000E+02  0.00000E+00  9.000E+00
      21     1     1     2   512   502 -2.003358372E+01 -6.932073459E+00  2.471594398E+02  2.480668998E+02  3.814697266E-06  0.00000E+00  9.000E+00
#rwgt            1           1   3.9437444485101184E-002           8      214769           0
</event>
<event>
      5   9999  3.79277E-02  2.38560E+01 -1.00000E+00  1.60290E-01
      21    -1     0     0   511   501  0.000000000E+00  0.000000000E+00  4.494999562E+02  4.494999562E+02  0.000000000E+00  0.00000E+00  9.000E+00
      21    -1     0     0   501   502  0.000000000E+00  0.000000000E+00 -1.664969812E+02  1.664969812E+02  0.000000000E+00  0.00000E+00  9.000E+00
      25     1     1     2     0     0  6.462829199E+01  1.691156348E+02 -1.209287348E+01  2.203364510E+02  1.250000000E+02  0.00000E+00  9.000E+00
      25     1     1     2     0     0 -6.794944387E+01 -1.927393388E+02  2.719970889E+02  3.624541295E+02  1.250000000E+02  0.00000E+00  9.000E+00
      21     1     1     2   511   502  3.321151876E+00  2.362370396E+01  2.309875961E+01  3.320635684E+01  3.371747881E-07  0.00000E+00  9.000E+00
#rwgt            1           1   4.4359034172262606E-002           8      214908           0
</event>
<event>
      5   9999  3.79277E-02  2.09820E+01 -1.00000E+00  1.64670E-01
      21    -1     0     0   512   501  0.000000000E+00  0.000000000E+00  8.951293879E+02  8.951293879E+02  0.000000000E+00  0.00000E+00  9.000E+00
      21    -1     0     0   501   502  0.000000000E+00  0.000000000E+00 -1.255401328E+02  1.255401328E+02  0.000000000E+00  0.00000E+00  9.000E+00
      25     1     1     2     0     0  1.051175796E+02 -3.320065753E+01 -3.172780877E+01  1.696574285E+02  1.250000000E+02  0.00000E+00  9.000E+00
      25     1     1     2     0     0 -1.237670010E+02  4.281547359E+01  3.081387067E+02  3.573876017E+02  1.250000000E+02  0.00000E+00  9.000E+00
      21     1     1     2   512   502  1.864942140E+01 -9.614816063E+00  4.931783572E+02  4.936244905E+02  5.394796609E-06  0.00000E+00  9.000E+00
#rwgt            1           1   6.2258239200536615E-002           8      215101           0
</event>
<event>
      5   9999  3.79277E-02  7.20593E+01 -1.00000E+00  1.30586E-01
      21    -1     0     0   511   501  0.000000000E+00  0.000000000E+00  9.539037365E+01  9.539037365E+01  0.000000000E+00  0.00000E+00  9.000E+00
      21    -1     0     0   501   502  0.000000000E+00  0.000000000E+00 -1.095411881E+03  1.095411881E+03  0.000000000E+00  0.00000E+00  9.000E+00
      25     1     1     2     0     0  3.428117260E+01  2.011681666E+02 -5.794537488E+02  6.269254158E+02  1.250000000E+02  0.00000E+00  9.000E+00
      25     1     1     2     0     0  8.733973976E+00 -2.589803272E+02 -3.922602825E+02  4.864568032E+02  1.250000000E+02  0.00000E+00  9.000E+00
      21     1     1     2   511   502 -4.301514658E+01  5.781216066E+01 -2.830747655E+01  7.742003606E+01  1.430511475E-06  0.00000E+00  9.000E+00
#rwgt            1           1   4.1013086341608870E-002           8      215219           0
</event>
<event>
      5   9999  3.79277E-02  2.17956E+01 -1.00000E+00  1.63346E-01
      21    -1     0     0   502   501  0.000000000E+00  0.000000000E+00  1.005812752E+03  1.005812752E+03  0.000000000E+00  0.00000E+00  9.000E+00
      21    -1     0     0   501   512  0.000000000E+00  0.000000000E+00 -1.039866844E+02  1.039866844E+02  0.000000000E+00  0.00000E+00  9.000E+00
      25     1     1     2     0     0  2.410507702E+02 -1.173261507E+02  5.012923351E+02  5.820566163E+02  1.250000000E+02  0.00000E+00  9.000E+00
      25     1     1     2     0     0 -2.624220426E+02  1.130460964E+02  3.982340896E+02  5.058261939E+02  1.250000000E+02  0.00000E+00  9.000E+00
      21     1     1     2   502   512  2.137127238E+01  4.280054315E+00  2.299643090E+00  2.191662626E+01  1.460009660E-07  0.00000E+00  9.000E+00
#rwgt            2          11   7.5897408745791688E-003           8      215318           0
</event>
<event>
      5   9999  3.79277E-02  5.03265E+01 -1.00000E+00  1.38914E-01
      21    -1     0     0   511   501  0.000000000E+00  0.000000000E+00  5.511263388E+01  5.511263388E+01  0.000000000E+00  0.00000E+00  9.000E+00
      21    -1     0     0   501   502  0.000000000E+00  0.000000000E+00 -1.675258400E+03  1.675258400E+03  0.000000000E+00  0.00000E+00  9.000E+00
      25     1     1     2     0     0 -3.327421477E+01  6.419661825E+01 -3.825514625E+02  4.088997440E+02  1.250000000E+02  0.00000E+00  9.000E+00
      25     1     1     2     0     0  7.580662662E+01 -9.109931951E+01 -1.256095916E+03  1.267851601E+03  1.250000000E+02  0.00000E+00  9.000E+00
      21     1     1     2   511   502 -4.253241185E+01  2.690270126E+01  1.850161266E+01  5.361968914E+01  1.143415337E-06  0.00000E+00  9.000E+00
#rwgt            1           1   4.0066504320701468E-002           8      215428           0
</event>
<event>
      5   9999  3.79277E-02  6.35272E+01 -1.00000E+00  1.33391E-01
      21    -1     0     0   512   501  0.000000000E+00  0.000000000E+00  5.512939177E+02  5.512939177E+02  0.000000000E+00  0.00000E+00  9.000E+00
      21    -1     0     0   501   502  0.000000000E+00  0.000000000E+00 -1.587222609E+03  1.587222609E+03  0.000000000E+00  0.00000E+00  9.000E+00
      25     1     1     2     0     0  1.904443097E+02 -1.458872099E+02 -5.116431893E+02  5.787537181E+02  1.250000000E+02  0.00000E+00  9.000E+00
      25     1     1     2     0     0 -2.448346341E+02  1.130634904E+02 -1.018753371E+03  1.061230786E+03  1.250000000E+02  0.00000E+00  9.000E+00
      21     1     1     2   512   502  5.439032436E+01  3.282371954E+01  4.944678688E+02  4.985320223E+02  7.629394531E-06  0.00000E+00  9.000E+00
#rwgt            1           1  0.22322130882999366                8      215553           0
</event>
<event>
      5   9999  3.79277E-02  1.04740E+01 -1.00000E+00  1.93461E-01
      21    -1     0     0   502   501  0.000000000E+00  0.000000000E+00  9.746352312E+01  9.746352312E+01  0.000000000E+00  0.00000E+00  9.000E+00
      21    -1     0     0   501   511  0.000000000E+00  0.000000000E+00 -8.277275807E+02  8.277275807E+02  0.000000000E+00  0.00000E+00  9.000E+00
      25     1     1     2     0     0  1.694666418E+02 -1.612177878E+01 -9.620155940E+01  2.320745451E+02  1.250000000E+02  0.00000E+00  9.000E+00
      25     1     1     2     0     0 -1.625584040E+02  8.249000546E+00 -3.282565898E+02  3.871313336E+02  1.250000000E+02  0.00000E+00  9.000E+00
      21     1     1     2   502   511 -6.908237813E+00  7.872778229E+00 -3.058059084E+02  3.059852251E+02  0.000000000E+00  0.00000E+00  9.000E+00
#rwgt            1           1   4.3882545379734593E-002           8      215698           0
</event>
<event>
      5   9999  3.79277E-02  1.41523E+01 -1.00000E+00  1.79797E-01
      21    -1     0     0   502   501  0.000000000E+00  0.000000000E+00  1.240713562E+02  1.240713562E+02  0.000000000E+00  0.00000E+00  9.000E+00
      21    -1     0     0   512   502  0.000000000E+00  0.000000000E+00 -3.550415366E+02  3.550415366E+02  0.000000000E+00  0.00000E+00  9.000E+00
      25     1     1     2     0     0 -1.134164589E+02  5.275180720E+01 -1.659989683E+02  2.425421691E+02  1.250000000E+02  0.00000E+00  9.000E+00
      25     1     1     2     0     0  1.068544482E+02 -6.529083300E+01 -7.188690580E+00  1.770803299E+02  1.250000000E+02  0.00000E+00  9.000E+00
      21     1     1     2   512   501  6.562010736E+00  1.253902580E+01 -5.778252156E+01  5.949039376E+01  0.000000000E+00  0.00000E+00  9.000E+00
#rwgt            1           1   3.1102767149435138E-002           8      215948           0
</event>
<event>
      5   9999  3.79277E-02  1.38844E+01 -1.00000E+00  1.80605E-01
      21    -1     0     0   511   501  0.000000000E+00  0.000000000E+00  1.269283194E+02  1.269283194E+02  0.000000000E+00  0.00000E+00  9.000E+00
      21    -1     0     0   501   502  0.000000000E+00  0.000000000E+00 -4.037401249E+02  4.037401249E+02  0.000000000E+00  0.00000E+00  9.000E+00
      25     1     1     2     0     0 -9.209399262E+01 -8.799435416E+01 -2.761107757E+02  3.287650685E+02  1.250000000E+02  0.00000E+00  9.000E+00
      25     1     1     2     0     0  8.269872812E+01  9.821714859E+01 -1.757164785E+01  1.800540217E+02  1.250000000E+02  0.00000E+00  9.000E+00
      21     1     1     2   511   502  9.395264491E+00 -1.022279443E+01  1.687061802E+01  2.184935407E+01  5.840038640E-07  0.00000E+00  9.000E+00
#rwgt            1           1   2.4658269272907686E-002           8      216223           0
</event>
<event>
      5   9999  3.79277E-02  9.22905E+01 -1.00000E+00  1.25416E-01
      21    -1     0     0   502   501  0.000000000E+00  0.000000000E+00  3.464230984E+02  3.464230984E+02  0.000000000E+00  0.00000E+00  9.000E+00
      21    -1     0     0   501   512  0.000000000E+00  0.000000000E+00 -4.258823910E+02  4.258823910E+02  0.000000000E+00  0.00000E+00  9.000E+00
      25     1     1     2     0     0 -1.821847240E+02 -1.378319100E+02  2.321324738E+02  3.488544029E+02  1.250000000E+02  0.00000E+00  9.000E+00
      25     1     1     2     0     0  1.025645441E+02  9.116110842E+01 -1.556381584E+02  2.422355666E+02  1.250000000E+02  0.00000E+00  9.000E+00
      21     1     1     2   502   512  7.962017992E+01  4.667080161E+01 -1.559536079E+02  1.812155198E+02  3.814697266E-06  0.00000E+00  9.000E+00
#rwgt            1           1   2.9222923133913531E-002           8      216591           0
</event>
<event>
      5   9999  3.79277E-02  1.15404E+01 -1.00000E+00  1.88829E-01
      21    -1     0     0   502   501  0.000000000E+00  0.000000000E+00  3.832521056E+01  3.832521056E+01  0.000000000E+00  0.00000E+00  9.000E+00
      21    -1     0     0   501   511  0.000000000E+00  0.000000000E+00 -2.941501416E+03  2.941501416E+03  0.000000000E+00  0.00000E+00  9.000E+00
      25     1     1     2     0     0  1.508449654E+02 -1.776881009E+02 -5.895804541E+02  6.461867970E+02  1.250000000E+02  0.00000E+00  9.000E+00
      25     1     1     2     0     0 -1.612562334E+02  1.826667370E+02 -1.875103093E+03  1.894995335E+03  1.250000000E+02  0.00000E+00  9.000E+00
      21     1     1     2   502   511  1.041126799E+01 -4.978636036E+00 -4.384926582E+02  4.386444946E+02  0.000000000E+00  0.00000E+00  9.000E+00
#rwgt            1           1   9.8388189203842014E-002           8      216649           0
</event>
<event>
      5   9999  3.79277E-02  3.66969E+01 -1.00000E+00  1.47200E-01
      21    -1     0     0   512   501  0.000000000E+00  0.000000000E+00  5.315189321E+02  5.315189321E+02  0.000000000E+00  0.00000E+00  9.000E+00
      21    -1     0     0   501   502  0.000000000E+00  0.000000000E+00 -1.394924254E+02  1.394924254E+02  0.000000000E+00  0.00000E+00  9.000E+00
      25     1     1     2     0     0 -1.339624137E+02 -3.107621895E+01  6.706210129E+01  1.975702029E+02  1.250000000E+02  0.00000E+00  9.000E+00
      25     1     1     2     0     0  1.496460667E+02 -2.100359601E+00  5.725413555E+01  2.032274411E+02  1.250000000E+02  0.00000E+00  9.000E+00
      21     1     1     2   512   502 -1.568365302E+01  3.317657856E+01  2.677102699E+02  2.702137135E+02  5.394796609E-06  0.00000E+00  9.000E+00
#rwgt            1           1   3.9018101698206381E-002           8      216855           0
</event>
<event>
      5   9999  3.79277E-02  1.08100E+02 -1.00000E+00  1.22325E-01
      21    -1     0     0   502   511  0.000000000E+00  0.000000000E+00  8.280024488E+01  8.280024488E+01  0.000000000E+00  0.00000E+00  9.000E+00
      21    -1     0     0   501   502  0.000000000E+00  0.000000000E+00 -9.511680422E+02  9.511680422E+02  0.000000000E+00  0.00000E+00  9.000E+00
      25     1     1     2     0     0  7.298036607E+01  3.512008430E+00 -7.440751069E+01  1.627880391E+02  1.250000000E+02  0.00000E+00  9.000E+00
      25     1     1     2     0     0  2.741877178E+01  3.655859333E+01 -7.371362600E+02  7.490548615E+02  1.250000000E+02  0.00000E+00  9.000E+00
      21     1     1     2   501   511 -1.003991378E+02 -4.007060176E+01 -5.682402664E+01  1.221253864E+02  2.336015456E-06  0.00000E+00  9.000E+00
#rwgt            1           1   2.1521125447278293E-002           8      216998           0
</event>
<event>
      5   9999  3.79277E-02  6.17086E+01 -1.00000E+00  1.34055E-01
      21    -1     0     0   502   501  0.000000000E+00  0.000000000E+00  1.625460043E+02  1.625460043E+02  0.000000000E+00  0.00000E+00  9.000E+00
      21    -1     0     0   512   502  0.000000000E+00  0.000000000E+00 -3.543777955E+02  3.543777955E+02  0.000000000E+00  0.00000E+00  9.000E+00
      25     1     1     2     0     0  1.093650123E+02 -1.529661208E+02 -4.526469365E+01  2.302894538E+02  1.250000000E+02  0.00000E+00  9.000E+00
      25     1     1     2     0     0 -9.641068360E+01  9.263253805E+01 -9.501070078E+01  2.062227928E+02  1.250000000E+02  0.00000E+00  9.000E+00
      21     1     1     2   512   501 -1.295432874E+01  6.033358278E+01 -5.155639679E+01  8.041155324E+01  9.536743164E-07  0.00000E+00  9.000E+00
#rwgt            1           1   3.8279950765977191E-002           8      217201           0
</event>
<event>
      5   9999  3.79277E-02  4.12683E+01 -1.00000E+00  1.44004E-01
      21    -1     0     0   502   511  0.000000000E+00  0.000000000E+00  2.237420996E+02  2.237420996E+02  0.000000000E+00  0.00000E+00  9.000E+00
      21    -1     0     0   501   502  0.000000000E+00  0.000000000E+00 -5.654087050E+02  5.654087050E+02  0.000000000E+00  0.00000E+00  9.000E+00
      25     1     1     2     0     0  4.949080297E+01  7.123740072E+01  3.050989224E+01  1.551771902E+02  1.250000000E+02  0.00000E+00  9.000E+00
      25     1     1     2     0     0 -5.260306636E+01 -3.008658124E+01 -4.899062354E+02  5.092203888E+02  1.250000000E+02  0.00000E+00  9.000E+00
      21     1     1     2   501   511  3.112263383E+00 -4.115081948E+01  1.177297378E+02  1.247532255E+02  1.348699152E-06  0.00000E+00  9.000E+00
#rwgt            1           1   5.0838791392250407E-002           8      217325           0
</event>
<event>
      5   9999  3.79277E-02  1.10228E+02 -1.00000E+00  1.21955E-01
      21    -1     0     0   502   501  0.000000000E+00  0.000000000E+00  7.898568011E+02  7.898568011E+02  0.000000000E+00  0.00000E+00  9.000E+00
      21    -1     0     0   501   512  0.000000000E+00  0.000000000E+00 -1.901444439E+02  1.901444439E+02  0.000000000E+00  0.00000E+00  9.000E+00
      25     1     1     2     0     0 -2.294593006E+02  1.776690978E+01  3.655831382E+02  4.497146481E+02  1.250000000E+02  0.00000E+00  9.000E+00
      25     1     1     2     0     0  3.310155433E+02 -6.062182621E+01  2.149005040E+02  4.183939798E+02  1.250000000E+02  0.00000E+00  9.000E+00
      21     1     1     2   502   512 -1.015562427E+02  4.285491643E+01  1.922871494E+01  1.118926171E+02  1.410503336E-06  0.00000E+00  9.000E+00
#rwgt            1           1   2.9063640374724191E-002           8      217438           0
</event>
<event>
      5   9999  3.79277E-02  1.61033E+01 -1.00000E+00  1.74528E-01
      21    -1     0     0   511   501  0.000000000E+00  0.000000000E+00  1.078922338E+03  1.078922338E+03  0.000000000E+00  0.00000E+00  9.000E+00
      21    -1     0     0   501   502  0.000000000E+00  0.000000000E+00 -3.375131684E+01  3.375131684E+01  0.000000000E+00  0.00000E+00  9.000E+00
      25     1     1     2     0     0  8.155630238E+01  7.826037339E+01  3.160292045E+02  3.581557965E+02  1.250000000E+02  0.00000E+00  9.000E+00
      25     1     1     2     0     0 -9.750558669E+01 -8.048254772E+01  6.760632177E+02  6.990502516E+02  1.250000000E+02  0.00000E+00  9.000E+00
      21     1     1     2   511   502  1.594928431E+01  2.222174326E+00  5.307859936E+01  5.546760711E+01  9.536743164E-07  0.00000E+00  9.000E+00
#rwgt            1           1   3.8257220342730151E-002           8      217484           0
</event>
<event>
      5   9999  3.79277E-02  6.87170E+01 -1.00000E+00  1.31629E-01
      21    -1     0     0   502   512  0.000000000E+00  0.000000000E+00  9.741614632E+01  9.741614632E+01  0.000000000E+00  0.00000E+00  9.000E+00
      21    -1     0     0   501   502  0.000000000E+00  0.000000000E+00 -5.437330582E+02  5.437330582E+02  0.000000000E+00  0.00000E+00  9.000E+00
      25     1     1     2     0     0  2.988080334E+01  7.585856682E+01 -2.435927893E+02  2.856743453E+02  1.250000000E+02  0.00000E+00  9.000E+00
      25     1     1     2     0     0 -4.799538229E+01 -1.421450115E+02 -2.095315962E+02  2.864214566E+02  1.250000000E+02  0.00000E+00  9.000E+00
      21     1     1     2   501   512  1.811457895E+01  6.628644465E+01  6.807473616E+00  6.905340261E+01  8.596304120E-07  0.00000E+00  9.000E+00
#rwgt            1           1   4.0407860966031148E-002           8      217798           0
</event>
<event>
      5   9999  3.79277E-02  4.89172E+01 -1.00000E+00  1.39620E-01
      21    -1     0     0   511   501  0.000000000E+00  0.000000000E+00  1.247225250E+02  1.247225250E+02  0.000000000E+00  0.00000E+00  9.000E+00
      21    -1     0     0   501   502  0.000000000E+00  0.000000000E+00 -4.117486197E+02  4.117486197E+02  0.000000000E+00  0.00000E+00  9.000E+00
      25     1     1     2     0     0  3.637565791E+01  9.100690444E+01 -2.336507941E+02  2.825298899E+02  1.250000000E+02  0.00000E+00  9.000E+00
      25     1     1     2     0     0 -4.032164071E+01 -4.224915589E+01 -1.119151158E+02  1.776536491E+02  1.250000000E+02  0.00000E+00  9.000E+00
      21     1     1     2   511   502  3.945982800E+00 -4.875774856E+01  5.853981512E+01  7.628760567E+01  6.743495762E-07  0.00000E+00  9.000E+00
#rwgt            1           1   6.7363146325410572E-002           8      217876           0
</event>
<event>
      5   9999 -3.79277E-02  5.18702E+01 -1.00000E+00  1.38172E-01
       2    -1     0     0   502     0  0.000000000E+00  0.000000000E+00  1.337003376E+03  1.337003376E+03  0.000000000E+00  0.00000E+00  9.000E+00
      21    -1     0     0   501   502  0.000000000E+00  0.000000000E+00 -9.727974099E+01  9.727974099E+01  0.000000000E+00  0.00000E+00  9.000E+00
      25     1     1     2     0     0  2.521292370E+02  9.673018133E+00  3.264502915E+02  4.311119486E+02  1.250000000E+02  0.00000E+00  9.000E+00
      25     1     1     2     0     0 -2.799738382E+02 -5.343601938E+01  5.165175259E+02  6.030390641E+02  1.250000000E+02  0.00000E+00  9.000E+00
       2     1     1     2   501     0  2.784460121E+01  4.376300125E+01  3.967558175E+02  4.001321042E+02  0.000000000E+00  0.00000E+00  9.000E+00
#rwgt            1           1  -4.9412504767747861E-002           8      217952           0
</event>
<event>
      5   9999  3.79277E-02  6.15749E+01 -1.00000E+00  1.34105E-01
      21    -1     0     0   502   501  0.000000000E+00  0.000000000E+00  1.421922320E+02  1.421922320E+02  0.000000000E+00  0.00000E+00  9.000E+00
      21    -1     0     0   501   511  0.000000000E+00  0.000000000E+00 -3.718664276E+02  3.718664276E+02  0.000000000E+00  0.00000E+00  9.000E+00
      25     1     1     2     0     0  4.142729365E+01  1.364892695E+02 -8.855207787E+01  2.093131908E+02  1.250000000E+02  0.00000E+00  9.000E+00
      25     1     1     2     0     0 -6.561398639E+01 -7.986350682E+01 -1.315066966E+01  1.627308055E+02  1.250000000E+02  0.00000E+00  9.000E+00
      21     1     1     2   502   511  2.418669274E+01 -5.662576267E+01 -1.279714480E+02  1.420146634E+02  1.907348633E-06  0.00000E+00  9.000E+00
#rwgt            1           1   4.1350349414413290E-002           8      218177           0
</event>
<event>
      5   9999  3.79277E-02  2.13207E+01 -1.00000E+00  1.64110E-01
      21    -1     0     0   502   501  0.000000000E+00  0.000000000E+00  1.071536250E+02  1.071536250E+02  0.000000000E+00  0.00000E+00  9.000E+00
      21    -1     0     0   501   512  0.000000000E+00  0.000000000E+00 -9.703716947E+02  9.703716947E+02  0.000000000E+00  0.00000E+00  9.000E+00
      25     1     1     2     0     0 -6.470267666E+01 -2.076240193E+02 -6.125052791E+02  6.618775466E+02  1.250000000E+02  0.00000E+00  9.000E+00
      25     1     1     2     0     0  8.142337136E+01  1.943956465E+02 -1.020112850E+02  2.654255735E+02  1.250000000E+02  0.00000E+00  9.000E+00
      21     1     1     2   502   512 -1.672069470E+01  1.322837288E+01 -1.487015056E+02  1.502221996E+02  1.907348633E-06  0.00000E+00  9.000E+00
#rwgt            1           1   4.2264453686602768E-002           8      218273           0
</event>
<event>
      5   9999  3.79277E-02  3.09237E+01 -1.00000E+00  1.52131E-01
      21    -1     0     0   502   501  0.000000000E+00  0.000000000E+00  1.522868567E+02  1.522868567E+02  0.000000000E+00  0.00000E+00  9.000E+00
      21    -1     0     0   511   502  0.000000000E+00  0.000000000E+00 -2.822897425E+02  2.822897425E+02  0.000000000E+00  0.00000E+00  9.000E+00
      25     1     1     2     0     0  6.398149396E+01  7.662232736E+01 -1.498340356E+02  2.191799508E+02  1.250000000E+02  0.00000E+00  9.000E+00
      25     1     1     2     0     0 -9.153476168E+01 -9.066135647E+01  3.167743733E+01  1.822815245E+02  1.250000000E+02  0.00000E+00  9.000E+00
      21     1     1     2   511   501  2.755326771E+01  1.403902911E+01 -1.184628759E+01  3.311512388E+01  5.591411304E-07  0.00000E+00  9.000E+00
#rwgt            1           1   4.3902563818387745E-002           8      218485           0
</event>
<event>
      5   9999  3.79277E-02  1.87489E+02 -1.00000E+00  1.12679E-01
      21    -1     0     0   502   501  0.000000000E+00  0.000000000E+00  4.332261431E+02  4.332261431E+02  0.000000000E+00  0.00000E+00  9.000E+00
      -2    -1     0     0     0   502  0.000000000E+00  0.000000000E+00 -6.938281172E+02  6.938281172E+02  0.000000000E+00  0.00000E+00  9.000E+00
      25     1     1     2     0     0 -1.849228716E+01 -2.357341988E+02  1.156549224E+02  2.913994479E+02  1.250000000E+02  0.00000E+00  9.000E+00
      25     1     1     2     0     0  6.238650973E+01  5.345573467E+01  1.884718826E+02  2.406163808E+02  1.250000000E+02  0.00000E+00  9.000E+00
      -2     1     1     2     0   501 -4.389422257E+01  1.822784641E+02 -5.647287791E+02  5.950384317E+02  0.000000000E+00  0.00000E+00  9.000E+00
#rwgt            1           1   3.6665563802717495E-002           8      218682           0
</event>
<event>
      5   9999  3.79277E-02  3.27132E+01 -1.00000E+00  1.50473E-01
      21    -1     0     0   511   501  0.000000000E+00  0.000000000E+00  6.281470940E+02  6.281470940E+02  0.000000000E+00  0.00000E+00  9.000E+00
      21    -1     0     0   501   502  0.000000000E+00  0.000000000E+00 -1.467844147E+02  1.467844147E+02  0.000000000E+00  0.00000E+00  9.000E+00
      25     1     1     2     0     0 -1.086806803E+02 -2.933531273E+01 -4.890837077E+01  1.751829888E+02  1.250000000E+02  0.00000E+00  9.000E+00
      25     1     1     2     0     0  9.434970081E+01  5.874240518E+01  1.717592450E+02  2.397473138E+02  1.250000000E+02  0.00000E+00  9.000E+00
      21     1     1     2   511   502  1.433097949E+01 -2.940709245E+01  3.585118051E+02  3.600012061E+02  5.394796609E-06  0.00000E+00  9.000E+00
#rwgt            1           1   3.0165681740639955E-002           8      218734           0
</event>
<event>
      5   9999  3.79277E-02  7.20374E+01 -1.00000E+00  1.30593E-01
      21    -1     0     0   502   501  0.000000000E+00  0.000000000E+00  7.393901462E+02  7.393901462E+02  0.000000000E+00  0.00000E+00  9.000E+00
      21    -1     0     0   501   512  0.000000000E+00  0.000000000E+00 -1.019625578E+02  1.019625578E+02  0.000000000E+00  0.00000E+00  9.000E+00
      25     1     1     2     0     0 -1.627363212E+02  2.915060598E+01  2.133724396E+02  2.974654031E+02  1.250000000E+02  0.00000E+00  9.000E+00
      25     1     1     2     0     0  2.290055883E+02 -5.739548453E+01  3.531690567E+02  4.428218420E+02  1.250000000E+02  0.00000E+00  9.000E+00
      21     1     1     2   502   512 -6.626926716E+01  2.824487855E+01  7.088609211E+01  1.010654589E+02  1.651812370E-06  0.00000E+00  9.000E+00
#rwgt            1           1   3.9496537817476772E-002           8      218859           0
</event>
<event>
      5   9999  3.79277E-02  1.11779E+01 -1.00000E+00  1.90328E-01
      21    -1     0     0   502   501  0.000000000E+00  0.000000000E+00  2.864093014E+02  2.864093014E+02  0.000000000E+00  0.00000E+00  9.000E+00
      21    -1     0     0   511   502  0.000000000E+00  0.000000000E+00 -2.296732942E+02  2.296732942E+02  0.000000000E+00  0.00000E+00  9.000E+00
      25     1     1     2     0     0 -3.560198853E+01 -3.894491161E+01 -5.990731408E+01  1.483175445E+02  1.250000000E+02  0.00000E+00  9.000E+00
      25     1     1     2     0     0  2.628624543E+01  3.276739632E+01  2.239429291E+02  2.598847907E+02  1.250000000E+02  0.00000E+00  9.000E+00
      21     1     1     2   511   501  9.315743105E+00  6.177515285E+00 -1.072996078E+02  1.078802605E+02  1.348699152E-06  0.00000E+00  9.000E+00
#rwgt            1           1   5.4822887713544259E-002           8      218965           0
</event>
<event>
      5   9999  3.79277E-02  7.16727E+01 -1.00000E+00  1.30703E-01
       1    -1     0     0   502     0  0.000000000E+00  0.000000000E+00  2.090117844E+03  2.090117844E+03  0.000000000E+00  0.00000E+00  9.000E+00
      21    -1     0     0   501   502  0.000000000E+00  0.000000000E+00 -4.991889911E+01  4.991889911E+01  0.000000000E+00  0.00000E+00  9.000E+00
      25     1     1     2     0     0  5.875346963E+01 -6.130013025E+01  1.092052293E+02  1.864415680E+02  1.250000000E+02  0.00000E+00  9.000E+00
      25     1     1     2     0     0  5.871861202E+00  9.229273059E+01  5.733321769E+02  5.940431062E+02  1.250000000E+02  0.00000E+00  9.000E+00
       1     1     1     2   501     0 -6.462533084E+01 -3.099260034E+01  1.357661538E+03  1.359552069E+03  2.157918644E-05  0.00000E+00  9.000E+00
#rwgt            1           1   4.4126932231306037E-002           8      219197           0
</event>
<event>
      5   9999  3.79277E-02  3.92071E+01 -1.00000E+00  1.45382E-01
      21    -1     0     0   502   501  0.000000000E+00  0.000000000E+00  7.588954379E+01  7.588954379E+01  0.000000000E+00  0.00000E+00  9.000E+00
      21    -1     0     0   511   502  0.000000000E+00  0.000000000E+00 -1.153271160E+03  1.153271160E+03  0.000000000E+00  0.00000E+00  9.000E+00
      25     1     1     2     0     0  4.199909454E+01 -1.596520200E+02 -1.395844605E+02  2.497228725E+02  1.250000000E+02  0.00000E+00  9.000E+00
      25     1     1     2     0     0 -8.120399633E+01  1.592415910E+02 -5.827681760E+02  6.222505285E+02  1.250000000E+02  0.00000E+00  9.000E+00
      21     1     1     2   511   501  3.920490178E+01  4.104290626E-01 -3.550289796E+02  3.571873025E+02  6.607249480E-06  0.00000E+00  9.000E+00
#rwgt            1           1   4.3080492201342475E-002           8      219386           0
</event>
<event>
      5   9999  3.79277E-02  1.30027E+02 -1.00000E+00  1.18907E-01
      21    -1     0     0   502   512  0.000000000E+00  0.000000000E+00  1.916537323E+02  1.916537323E+02  0.000000000E+00  0.00000E+00  9.000E+00
      21    -1     0     0   501   502  0.000000000E+00  0.000000000E+00 -8.167645203E+02  8.167645203E+02  0.000000000E+00  0.00000E+00  9.000E+00
      25     1     1     2     0     0 -5.202262274E+01 -1.049571231E+02 -1.619612844E+02  2.357515824E+02  1.250000000E+02  0.00000E+00  9.000E+00
      25     1     1     2     0     0 -7.516464416E+01  7.793121006E+01 -5.767589376E+02  5.999990578E+02  1.250000000E+02  0.00000E+00  9.000E+00
      21     1     1     2   501   512  1.271872669E+02  2.702591305E+01  1.136094340E+02  1.726676123E+02  2.697398305E-06  0.00000E+00  9.000E+00
#rwgt            1           1   3.8347924560666435E-002           8      219552           0
</event>
<event>
      5   9999  3.79277E-02  1.36030E+01 -1.00000E+00  1.81479E-01
      21    -1     0     0   502   511  0.000000000E+00  0.000000000E+00  2.515991762E+02  2.515991762E+02  0.000000000E+00  0.00000E+00  9.000E+00
      21    -1     0     0   501   502  0.000000000E+00  0.000000000E+00 -8.980442904E+02  8.980442904E+02  0.000000000E+00  0.00000E+00  9.000E+00
      25     1     1     2     0     0  1.002243958E+02  7.041469931E+01 -1.821289583E+02  2.525848706E+02  1.250000000E+02  0.00000E+00  9.000E+00
      25     1     1     2     0     0 -9.728500384E+01 -5.713309576E+01 -6.700457469E+02  6.908797765E+02  1.250000000E+02  0.00000E+00  9.000E+00
      21     1     1     2   501   511 -2.939391955E+00 -1.328160354E+01  2.057295910E+02  2.061788196E+02  3.814697266E-06  0.00000E+00  9.000E+00
#rwgt            1           1   4.4257342846323287E-002           8      219673           0
</event>
<event>
      5   9999  3.79277E-02  2.96427E+01 -1.00000E+00  1.53402E-01
      21    -1     0     0   512   501  0.000000000E+00  0.000000000E+00  7.888832633E+02  7.888832633E+02  0.000000000E+00  0.00000E+00  9.000E+00
      21    -1     0     0   501   502  0.000000000E+00  0.000000000E+00 -3.071478766E+02  3.071478766E+02  0.000000000E+00  0.00000E+00  9.000E+00
      25     1     1     2     0     0  1.269461631E+02  1.627106819E+02 -9.705391722E+01  2.600664476E+02  1.250000000E+02  0.00000E+00  9.000E+00
      25     1     1     2     0     0 -1.522030265E+02 -1.782277592E+02  9.385016916E+00  2.657893413E+02  1.250000000E+02  0.00000E+00  9.000E+00
      21     1     1     2   512   502  2.525686334E+01  1.551707734E+01  5.694042869E+02  5.701753509E+02  1.078959322E-05  0.00000E+00  9.000E+00
#rwgt            1           1   3.4255410769982314E-002           8      219892           0
</event>
<event>
      5   9999  3.79277E-02  5.09762E+01 -1.00000E+00  1.38598E-01
      21    -1     0     0   502   501  0.000000000E+00  0.000000000E+00  1.392047971E+02  1.392047971E+02  0.000000000E+00  0.00000E+00  9.000E+00
      21    -1     0     0   511   502  0.000000000E+00  0.000000000E+00 -9.674135751E+02  9.674135751E+02  0.000000000E+00  0.00000E+00  9.000E+00
      25     1     1     2     0     0  6.675618665E+01 -1.580404689E+02 -2.432801646E+02  3.228674910E+02  1.250000000E+02  0.00000E+00  9.000E+00
      25     1     1     2     0     0 -4.648596346E+01  2.048132817E+02 -5.389740528E+01  2.502785557E+02  1.250000000E+02  0.00000E+00  9.000E+00
      21     1     1     2   511   501 -2.027022319E+01 -4.677281277E+01 -5.310312081E+02  5.334723254E+02  0.000000000E+00  0.00000E+00  9.000E+00
#rwgt            1           1   5.8780802067462244E-002           8      220127           0
</event>
<event>
      5   9999  3.79277E-02  5.00491E+01 -1.00000E+00  1.39051E-01
      21    -1     0     0   502   512  0.000000000E+00  0.000000000E+00  4.218140915E+02  4.218140915E+02  0.000000000E+00  0.00000E+00  9.000E+00
      21    -1     0     0   501   502  0.000000000E+00  0.000000000E+00 -2.351468769E+02  2.351468769E+02  0.000000000E+00  0.00000E+00  9.000E+00
      25     1     1     2     0     0 -7.878707693E+01 -7.337537638E+01  3.717018025E+01  1.691093482E+02  1.250000000E+02  0.00000E+00  9.000E+00
      25     1     1     2     0     0  6.767102086E+01  1.221744169E+02 -1.141763363E+02  2.194702507E+02  1.250000000E+02  0.00000E+00  9.000E+00
      21     1     1     2   501   512  1.111605607E+01 -4.879904048E+01  2.636733707E+02  2.683813694E+02  5.394796609E-06  0.00000E+00  9.000E+00
#rwgt            1           1   4.1049443802945500E-002           8      220314           0
</event>
<event>
      5   9999  3.79277E-02  1.13335E+02 -1.00000E+00  1.21431E-01
      21    -1     0     0   502   501  0.000000000E+00  0.000000000E+00  2.017194458E+01  2.017194458E+01  0.000000000E+00  0.00000E+00  9.000E+00
       2    -1     0     0   501     0  0.000000000E+00  0.000000000E+00 -3.119309897E+03  3.119309897E+03  0.000000000E+00  0.00000E+00  9.000E+00
      25     1     1     2     0     0 -1.190457040E+02 -8.135632684E+00 -5.730566953E+02  5.985457745E+02  1.250000000E+02  0.00000E+00  9.000E+00
      25     1     1     2     0     0  5.458009348E+01 -8.507903245E+01 -1.426431587E+03  1.435461425E+03  1.250000000E+02  0.00000E+00  9.000E+00
       2     1     1     2   502     0  6.446561051E+01  9.321466513E+01 -1.099649670E+03  1.105474642E+03  1.525878906E-05  0.00000E+00  9.000E+00
#rwgt            1           1  0.11582019754382124                8      220389           0
</event>
<event>
      5   9999  3.79277E-02  7.20616E+01 -1.00000E+00  1.30585E-01
      21    -1     0     0   502   501  0.000000000E+00  0.000000000E+00  9.011928207E+01  9.011928207E+01  0.000000000E+00  0.00000E+00  9.000E+00
      21    -1     0     0   501   511  0.000000000E+00  0.000000000E+00 -5.056272598E+02  5.056272598E+02  0.000000000E+00  0.00000E+00  9.000E+00
      25     1     1     2     0     0  2.282873743E+01  8.764566221E+01 -1.261366346E+02  1.993448368E+02  1.250000000E+02  0.00000E+00  9.000E+00
      25     1     1     2     0     0  3.795602165E+01 -1.263507298E+02 -1.361601456E+02  2.270897438E+02  1.250000000E+02  0.00000E+00  9.000E+00
      21     1     1     2   502   511 -6.078475908E+01  3.870506755E+01 -1.532111975E+02  1.693119613E+02  0.000000000E+00  0.00000E+00  9.000E+00
#rwgt            1           1   3.0024968477801024E-002           8      220450           0
</event>
<event>
      5   9999  3.79277E-02  2.25461E+01 -1.00000E+00  1.62187E-01
      21    -1     0     0   502   501  0.000000000E+00  0.000000000E+00  3.097467292E+02  3.097467292E+02  0.000000000E+00  0.00000E+00  9.000E+00
      21    -1     0     0   501   512  0.000000000E+00  0.000000000E+00 -2.062815544E+02  2.062815544E+02  0.000000000E+00  0.00000E+00  9.000E+00
      25     1     1     2     0     0  7.333521137E+01  5.253327581E+01 -7.384367063E+01  1.709259664E+02  1.250000000E+02  0.00000E+00  9.000E+00
      25     1     1     2     0     0 -8.944939262E+01 -6.830223461E+01  2.316471530E+02  2.862722351E+02  1.250000000E+02  0.00000E+00  9.000E+00
      21     1     1     2   502   512  1.611418125E+01  1.576895880E+01 -5.433830754E+01  5.883008215E+01  6.743495762E-07  0.00000E+00  9.000E+00
#rwgt            1           1   2.3227869170807606E-002           8      220549           0
</event>
<event>
      5   9999  3.79277E-02  1.27564E+01 -1.00000E+00  1.84279E-01
      21    -1     0     0   502   501  0.000000000E+00  0.000000000E+00  8.115315417E+01  8.115315417E+01  0.000000000E+00  0.00000E+00  9.000E+00
       2    -1     0     0   501     0  0.000000000E+00  0.000000000E+00 -1.698919884E+03  1.698919884E+03  0.000000000E+00  0.00000E+00  9.000E+00
      25     1     1     2     0     0  1.759641176E-01 -2.057064550E+02 -1.889006951E+02  3.059798183E+02  1.250000000E+02  0.00000E+00  9.000E+00
      25     1     1     2     0     0  8.553749050E+00  1.964049248E+02 -5.787113831E+02  6.238428697E+02  1.250000000E+02  0.00000E+00  9.000E+00
       2     1     1     2   502     0 -8.729713167E+00  9.301530190E+00 -8.501546511E+02  8.502503497E+02  0.000000000E+00  0.00000E+00  9.000E+00
#rwgt            1           1   2.7703980800704370E-002           8      220674           0
</event>
<event>
      5   9999  3.79277E-02  4.76002E+01 -1.00000E+00  1.40305E-01
      21    -1     0     0   502   511  0.000000000E+00  0.000000000E+00  1.090877124E+02  1.090877124E+02  0.000000000E+00  0.00000E+00  9.000E+00
      21    -1     0     0   501   502  0.000000000E+00  0.000000000E+00 -6.871569831E+02  6.871569831E+02  0.000000000E+00  0.00000E+00  9.000E+00
      25     1     1     2     0     0 -8.330208404E+01 -3.142417818E+01 -6.089648463E+01  1.651063234E+02  1.250000000E+02  0.00000E+00  9.000E+00
      25     1     1     2     0     0  1.298337392E+02  4.145331986E+01 -5.453296767E+02  5.758338596E+02  1.250000000E+02  0.00000E+00  9.000E+00
      21     1     1     2   501   511 -4.653165513E+01 -1.002914167E+01  2.815689064E+01  5.530451249E+01  1.390207266E-06  0.00000E+00  9.000E+00
#rwgt            1           1   3.8133778561332078E-002           8      220917           0
</event>
<event>
      5   9999  3.79277E-02  4.76753E+01 -1.00000E+00  1.40266E-01
      21    -1     0     0   502   501  0.000000000E+00  0.000000000E+00  1.301794010E+02  1.301794010E+02  0.000000000E+00  0.00000E+00  9.000E+00
      21    -1     0     0   501   512  0.000000000E+00  0.000000000E+00 -5.169229479E+02  5.169229479E+02  0.000000000E+00  0.00000E+00  9.000E+00
      25     1     1     2     0     0 -7.617817040E+01  7.633354736E+01  2.075626168E+01  1.663903438E+02  1.250000000E+02  0.00000E+00  9.000E+00
      25     1     1     2     0     0  9.163812227E+01 -1.214325900E+02 -2.629183873E+02  3.284729787E+02  1.250000000E+02  0.00000E+00  9.000E+00
      21     1     1     2   502   512 -1.545995187E+01  4.509904267E+01 -1.445814213E+02  1.522390264E+02  1.907348633E-06  0.00000E+00  9.000E+00
#rwgt            1           1   4.2496255726042764E-002           8      221049           0
</event>
<event>
      5   9999  3.79277E-02  1.39836E+01 -1.00000E+00  1.80303E-01
      21    -1     0     0   502   501  0.000000000E+00  0.000000000E+00  1.376889165E+02  1.376889165E+02  0.000000000E+00  0.00000E+00  9.000E+00
      21    -1     0     0   501   511  0.000000000E+00  0.000000000E+00 -1.452971719E+03  1.452971719E+03  0.000000000E+00  0.00000E+00  9.000E+00
      25     1     1     2     0     0  4.635256701E+01  1.374131150E+02 -2.058753943E+01  1.925610849E+02  1.250000000E+02  0.00000E+00  9.000E+00
      25     1     1     2     0     0 -5.558290034E+01 -1.269087379E+02 -1.168442666E+02  2.201655495E+02  1.250000000E+02  0.00000E+00  9.000E+00
      21     1     1     2   502   511  9.230333328E+00 -1.050437704E+01 -1.177850996E+03  1.177934001E+03  0.000000000E+00  0.00000E+00  9.000E+00
#rwgt            1           1   3.6451266908049153E-002           8      221235           0
</event>
<event>
      5   9999  3.79277E-02  5.15928E+01 -1.00000E+00  1.38303E-01
      21    -1     0     0   512   501  0.000000000E+00  0.000000000E+00  1.505892841E+02  1.505892841E+02  0.000000000E+00  0.00000E+00  9.000E+00
      21    -1     0     0   501   502  0.000000000E+00  0.000000000E+00 -9.137800721E+02  9.137800721E+02  0.000000000E+00  0.00000E+00  9.000E+00
      25     1     1     2     0     0  1.202929441E+02  1.936234171E+02 -1.820072837E+02  3.173516525E+02  1.250000000E+02  0.00000E+00  9.000E+00
      25     1     1     2     0     0 -8.236387764E+01 -1.586491396E+02 -6.356268282E+02  6.720117727E+02  1.250000000E+02  0.00000E+00  9.000E+00
      21     1     1     2   512   502 -3.792906651E+01 -3.497427750E+01  5.444332387E+01  7.500593101E+01  0.000000000E+00  0.00000E+00  9.000E+00
#rwgt            1           1  0.23571716543585536                8      221496           0
</event>
<event>
      5   9999  3.79277E-02  1.13556E+02 -1.00000E+00  1.21395E-01
       4    -1     0     0   502     0  0.000000000E+00  0.000000000E+00  1.337060778E+02  1.337060778E+02  0.000000000E+00  0.00000E+00  9.000E+00
      21    -1     0     0   501   502  0.000000000E+00  0.000000000E+00 -2.585202554E+03  2.585202554E+03  0.000000000E+00  0.00000E+00  9.000E+00
      25     1     1     2     0     0  2.030175759E+02  4.853768970E+01 -1.469303282E+03  1.489311646E+03  1.250000000E+02  0.00000E+00  9.000E+00
      25     1     1     2     0     0 -1.603769548E+02 -1.537840715E+02 -1.061113257E+03  1.091309604E+03  1.250000000E+02  0.00000E+00  9.000E+00
       4     1     1     2   501     0 -4.264062109E+01  1.052463817E+02  7.892006333E+01  1.382873813E+02  4.672030912E-06  0.00000E+00  9.000E+00
#rwgt            1           1   4.9817358990828030E-002           8      221673           0
</event>
<event>
      5   9999  3.79277E-02  8.53695E+01 -1.00000E+00  1.26999E-01
      21    -1     0     0   511   501  0.000000000E+00  0.000000000E+00  7.265804292E+02  7.265804292E+02  0.000000000E+00  0.00000E+00  9.000E+00
      21    -1     0     0   501   502  0.000000000E+00  0.000000000E+00 -5.357736320E+01  5.357736320E+01  0.000000000E+00  0.00000E+00  9.000E+00
      25     1     1     2     0     0  8.744095385E+00  3.099226156E+01  1.555497107E+02  2.021328573E+02  1.250000000E+02  0.00000E+00  9.000E+00
      25     1     1     2     0     0  6.005661995E+01 -8.153354492E+01  2.500865742E+02  2.973597336E+02  1.250000000E+02  0.00000E+00  9.000E+00
      21     1     1     2   511   502 -6.880071533E+01  5.054128336E+01  2.673667810E+02  2.806652015E+02  3.814697266E-06  0.00000E+00  9.000E+00
#rwgt            1           1   3.3779086650646772E-002           8      221719           0
</event>
<event>
      5   9999  3.79277E-02  6.82314E+01 -1.00000E+00  1.31786E-01
      21    -1     0     0   512   501  0.000000000E+00  0.000000000E+00  9.154620984E+02  9.154620984E+02  0.000000000E+00  0.00000E+00  9.000E+00
      21    -1     0     0   501   502  0.000000000E+00  0.000000000E+00 -5.866321879E+01  5.866321879E+01  0.000000000E+00  0.00000E+00  9.000E+00
      25     1     1     2     0     0  8.966184757E+01 -1.226214278E+02  4.396827758E+02  4.816857947E+02  1.250000000E+02  0.00000E+00  9.000E+00
      25     1     1     2     0     0 -1.163635935E+02  5.983177004E+01  2.260642895E+02  2.895693174E+02  1.250000000E+02  0.00000E+00  9.000E+00
      21     1     1     2   512   502  2.670174595E+01  6.278965778E+01  1.910518143E+02  2.028702051E+02  0.000000000E+00  0.00000E+00  9.000E+00
#rwgt            1           1   4.0225424740193187E-002           8      221784           0
</event>
<event>
      5   9999  3.79277E-02  5.98349E+01 -1.00000E+00  1.34767E-01
      21    -1     0     0   502   511  0.000000000E+00  0.000000000E+00  8.835869581E+01  8.835869581E+01  0.000000000E+00  0.00000E+00  9.000E+00
      21    -1     0     0   501   502  0.000000000E+00  0.000000000E+00 -5.468148214E+02  5.468148214E+02  0.000000000E+00  0.00000E+00  9.000E+00
      25     1     1     2     0     0  5.221203901E+01 -8.999675679E+01 -7.799248718E+01  1.803700122E+02  1.250000000E+02  0.00000E+00  9.000E+00
      25     1     1     2     0     0  7.607369469E+00  9.135714385E+01 -3.593402976E+02  3.913495232E+02  1.250000000E+02  0.00000E+00  9.000E+00
      21     1     1     2   501   511 -5.981940848E+01 -1.360387058E+00 -2.112334082E+01  6.345398184E+01  5.840038640E-07  0.00000E+00  9.000E+00
#rwgt            1           1   4.7143591405160341E-002           8      222018           0
</event>
<event>
      5   9999  3.79277E-02  2.40674E+01 -1.00000E+00  1.59998E-01
      21    -1     0     0   512   501  0.000000000E+00  0.000000000E+00  4.593267199E+02  4.593267199E+02  0.000000000E+00  0.00000E+00  9.000E+00
      21    -1     0     0   501   502  0.000000000E+00  0.000000000E+00 -1.748498539E+03  1.748498539E+03  0.000000000E+00  0.00000E+00  9.000E+00
      25     1     1     2     0     0  4.282113587E+02  1.370142572E+02 -6.166203617E+02  7.732939576E+02  1.250000000E+02  0.00000E+00  9.000E+00
      25     1     1     2     0     0 -4.515835666E+02 -1.312715896E+02 -9.968838568E+02  1.109307158E+03  1.250000000E+02  0.00000E+00  9.000E+00
      21     1     1     2   512   502  2.337220794E+01 -5.742667665E+00  3.243323990E+02  3.252241433E+02  7.629394531E-06  0.00000E+00  9.000E+00
#rwgt            1           1  0.27126556719484923                8      222287           0
</event>
<event>
      5   9999  3.79277E-02  3.11580E+01 -1.00000E+00  1.51906E-01
      21    -1     0     0   502   511  0.000000000E+00  0.000000000E+00  1.056062279E+03  1.056062279E+03  0.000000000E+00  0.00000E+00  9.000E+00
      21    -1     0     0   501   502  0.000000000E+00  0.000000000E+00 -5.312528986E+01  5.312528986E+01  0.000000000E+00  0.00000E+00  9.000E+00
      25     1     1     2     0     0 -1.195993501E+02 -2.503106369E+01  1.374237757E+02  2.223529915E+02  1.250000000E+02  0.00000E+00  9.000E+00
      25     1     1     2     0     0  9.691622922E+01  3.669950603E+00  7.784237174E+02  7.943391643E+02  1.250000000E+02  0.00000E+00  9.000E+00
      21     1     1     2   501   511  2.268312093E+01  2.136111309E+01  8.708949630E+01  9.249541336E+01  1.348699152E-06  0.00000E+00  9.000E+00
#rwgt            1           1   4.3328071486425188E-002           8      222622           0
</event>
<event>
      5   9999  3.79277E-02  1.29971E+01 -1.00000E+00  1.83456E-01
      21    -1     0     0   512   501  0.000000000E+00  0.000000000E+00  3.333537356E+01  3.333537356E+01  0.000000000E+00  0.00000E+00  9.000E+00
      21    -1     0     0   501   502  0.000000000E+00  0.000000000E+00 -2.582758837E+03  2.582758837E+03  0.000000000E+00  0.00000E+00  9.000E+00
      25     1     1     2     0     0 -1.942392258E+02 -7.421342668E+01 -6.046914988E+02  6.515468657E+02  1.250000000E+02  0.00000E+00  9.000E+00
      25     1     1     2     0     0  1.862472239E+02  8.446295370E+01 -1.930308511E+03  1.945131863E+03  1.250000000E+02  0.00000E+00  9.000E+00
      21     1     1     2   512   502  7.992001821E+00 -1.024952702E+01 -1.442345357E+01  1.941548120E+01  0.000000000E+00  0.00000E+00  9.000E+00
#rwgt            1           1   7.2509005298796711E-002           8      223014           0
</event>
<event>
      5   9999 -3.79277E-02  2.48911E+01 -1.00000E+00  1.58893E-01
      21    -1     0     0   502   511  0.000000000E+00  0.000000000E+00  3.394297044E+02  3.394297044E+02  0.000000000E+00  0.00000E+00  9.000E+00
      21    -1     0     0   501   502  0.000000000E+00  0.000000000E+00 -1.816843911E+02  1.816843911E+02  0.000000000E+00  0.00000E+00  9.000E+00
      25     1     1     2     0     0 -1.755265830E+02  7.632019410E+01  1.591184644E+00  2.286085853E+02  1.250000000E+02  0.00000E+00  9.000E+00
      25     1     1     2     0     0  1.534111563E+02 -8.774279589E+01  1.168789806E+02  2.460070674E+02  1.250000000E+02  0.00000E+00  9.000E+00
      21     1     1     2   501   511  2.211542675E+01  1.142260179E+01  3.927514804E+01  4.649844282E+01  4.768371582E-07  0.00000E+00  9.000E+00
#rwgt            1           1  -4.3632174514180992E-002           8      223280           0
</event>
<event>
      5   9999  3.79277E-02  9.39964E+01 -1.00000E+00  1.25050E-01
      21    -1     0     0   502   501  0.000000000E+00  0.000000000E+00  1.503366618E+02  1.503366618E+02  0.000000000E+00  0.00000E+00  9.000E+00
      21    -1     0     0   501   512  0.000000000E+00  0.000000000E+00 -4.837609970E+02  4.837609970E+02  0.000000000E+00  0.00000E+00  9.000E+00
      25     1     1     2     0     0  8.895840640E+01  1.408504376E+02 -2.349668377E+02  3.139854434E+02  1.250000000E+02  0.00000E+00  9.000E+00
      25     1     1     2     0     0  3.474977878E+00 -1.579204433E+02 -2.961043297E+01  2.035994097E+02  1.250000000E+02  0.00000E+00  9.000E+00
      21     1     1     2   502   512 -9.243338428E+01  1.707000568E+01 -6.884706448E+01  1.165128058E+02  9.536743164E-07  0.00000E+00  9.000E+00
#rwgt            1           1   3.4805449908877281E-002           8      223408           0
</event>
<event>
      5   9999 -3.79277E-02  1.00868E+02 -1.00000E+00  1.23659E-01
      21    -1     0     0   502   501  0.000000000E+00  0.000000000E+00  1.686898149E+02  1.686898149E+02  0.000000000E+00  0.00000E+00  9.000E+00
      21    -1     0     0   511   502  0.000000000E+00  0.000000000E+00 -1.799636101E+03  1.799636101E+03  0.000000000E+00  0.00000E+00  9.000E+00
      25     1     1     2     0     0  2.900338816E+02  8.541555279E+01 -2.310783198E+02  4.005467001E+02  1.250000000E+02  0.00000E+00  9.000E+00
      25     1     1     2     0     0 -1.975353972E+02 -4.518751814E+01 -9.077851129E+01  2.548095035E+02  1.250000000E+02  0.00000E+00  9.000E+00
      21     1     1     2   511   501 -9.249848437E+01 -4.022803464E+01 -1.309089455E+03  1.312969713E+03  1.525878906E-05  0.00000E+00  9.000E+00
#rwgt            1           1 -0.35123327688746170                8      223487           0
</event>
<event>
      5   9999  3.79277E-02  2.35947E+01 -1.00000E+00  1.60656E-01
      21    -1     0     0   502   512  0.000000000E+00  0.000000000E+00  6.458826961E+01  6.458826961E+01  0.000000000E+00  0.00000E+00  9.000E+00
      21    -1     0     0   501   502  0.000000000E+00  0.000000000E+00 -1.390427677E+03  1.390427677E+03  0.000000000E+00  0.00000E+00  9.000E+00
      25     1     1     2     0     0  4.088337620E+01 -2.466132390E+02 -7.339993536E+02  7.854104603E+02  1.250000000E+02  0.00000E+00  9.000E+00
      25     1     1     2     0     0 -6.349863843E+01  2.533407340E+02 -5.436728675E+02  6.159697976E+02  1.250000000E+02  0.00000E+00  9.000E+00
      21     1     1     2   501   512  2.261526223E+01 -6.727495021E+00 -4.816718643E+01  5.363568890E+01  0.000000000E+00  0.00000E+00  9.000E+00
#rwgt            1           1   3.4505569884075854E-002           8      223549           0
</event>
<event>
      5   9999  3.79277E-02  5.62762E+01 -1.00000E+00  1.36207E-01
      21    -1     0     0   502   501  0.000000000E+00  0.000000000E+00  2.811472040E+02  2.811472040E+02  0.000000000E+00  0.00000E+00  9.000E+00
      21    -1     0     0   511   502  0.000000000E+00  0.000000000E+00 -5.937076879E+02  5.937076879E+02  0.000000000E+00  0.00000E+00  9.000E+00
      25     1     1     2     0     0  5.368897862E+01  1.455293608E+02  2.102102525E+02  2.896112075E+02  1.250000000E+02  0.00000E+00  9.000E+00
      25     1     1     2     0     0 -8.009981096E+01 -9.583551846E+01 -2.464713685E+02  3.032714326E+02  1.250000000E+02  0.00000E+00  9.000E+00
      21     1     1     2   511   501  2.641083233E+01 -4.969384233E+01 -2.762993679E+02  2.819722517E+02  3.814697266E-06  0.00000E+00  9.000E+00
#rwgt            1           1   4.4077611229380219E-002           8      223756           0
</event>
<event>
      5   9999  3.79277E-02  1.83501E+01 -1.00000E+00  1.69515E-01
      21    -1     0     0   502   501  0.000000000E+00  0.000000000E+00  1.051940015E+03  1.051940015E+03  0.000000000E+00  0.00000E+00  9.000E+00
      21    -1     0     0   501   512  0.000000000E+00  0.000000000E+00 -4.289146085E+01  4.289146085E+01  0.000000000E+00  0.00000E+00  9.000E+00
      25     1     1     2     0     0  2.578408483E+00  1.130325911E+02  7.740189173E+02  7.921573702E+02  1.250000000E+02  0.00000E+00  9.000E+00
      25     1     1     2     0     0  1.567012087E+01 -1.111047742E+02  2.276116116E+02  2.828813696E+02  1.250000000E+02  0.00000E+00  9.000E+00
      21     1     1     2   502   512 -1.824852935E+01 -1.927816852E+00  7.418025310E+00  1.979273606E+01  0.000000000E+00  0.00000E+00  9.000E+00
#rwgt            1           1   3.3540927711836491E-002           8      223938           0
</event>
<event>
      5   9999  3.79277E-02  2.04899E+01 -1.00000E+00  1.65507E-01
      21    -1     0     0   502   501  0.000000000E+00  0.000000000E+00  8.200685417E+02  8.200685417E+02  0.000000000E+00  0.00000E+00  9.000E+00
      21    -1     0     0   501   511  0.000000000E+00  0.000000000E+00 -1.505497316E+02  1.505497316E+02  0.000000000E+00  0.00000E+00  9.000E+00
      25     1     1     2     0     0 -4.357342978E+01  1.333265524E+02  2.035833227E+02  2.770302919E+02  1.250000000E+02  0.00000E+00  9.000E+00
      25     1     1     2     0     0  3.706159402E+01 -1.527541300E+02  5.612484547E+02  5.960974869E+02  1.250000000E+02  0.00000E+00  9.000E+00
      21     1     1     2   502   511  6.511835760E+00  1.942757763E+01 -9.531296736E+01  9.749049453E+01  1.348699152E-06  0.00000E+00  9.000E+00
#rwgt            1           1   2.3628098200871413E-002           8      224076           0
</event>
<event>
      5   9999  3.79277E-02  2.40477E+01 -1.00000E+00  1.60025E-01
      21    -1     0     0   512   501  0.000000000E+00  0.000000000E+00  1.396538138E+02  1.396538138E+02  0.000000000E+00  0.00000E+00  9.000E+00
      21    -1     0     0   501   502  0.000000000E+00  0.000000000E+00 -4.876492432E+02  4.876492432E+02  0.000000000E+00  0.00000E+00  9.000E+00
      25     1     1     2     0     0  4.526547850E+01  1.756236147E+02 -2.981067991E+02  3.706552053E+02  1.250000000E+02  0.00000E+00  9.000E+00
      25     1     1     2     0     0 -6.882885375E+01 -1.708216362E+02 -6.005302892E+01  2.305402542E+02  1.250000000E+02  0.00000E+00  9.000E+00
      21     1     1     2   512   502  2.356337525E+01 -4.801978456E+00  1.016439853E+01  2.610759751E+01  2.920019320E-07  0.00000E+00  9.000E+00
#rwgt            1           1   3.9478219267878763E-002           8      224234           0
</event>
<event>
      5   9999  3.79277E-02  6.30390E+01 -1.00000E+00  1.33567E-01
      21    -1     0     0   502   501  0.000000000E+00  0.000000000E+00  1.346329205E+03  1.346329205E+03  0.000000000E+00  0.00000E+00  9.000E+00
       2    -1     0     0   501     0  0.000000000E+00  0.000000000E+00 -1.297524860E+03  1.297524860E+03  0.000000000E+00  0.00000E+00  9.000E+00
      25     1     1     2     0     0  1.100477530E+02  4.249912055E+01  1.285495522E+03  1.296935010E+03  1.250000000E+02  0.00000E+00  9.000E+00
      25     1     1     2     0     0 -5.463222659E+01 -7.254956533E+01 -5.569379324E+01  1.642404281E+02  1.250000000E+02  0.00000E+00  9.000E+00
       2     1     1     2   502     0 -5.541552638E+01  3.005044478E+01 -1.180997385E+03  1.182678626E+03  1.525878906E-05  0.00000E+00  9.000E+00
#rwgt            1           1   3.8840699729264884E-002           8      224394           0
</event>
<event>
      5   9999  3.79277E-02  2.10152E+01 -1.00000E+00  1.64614E-01
      21    -1     0     0   502   511  0.000000000E+00  0.000000000E+00  3.369866444E+02  3.369866444E+02  0.000000000E+00  0.00000E+00  9.000E+00
      21    -1     0     0   501   502  0.000000000E+00  0.000000000E+00 -1.468179116E+02  1.468179116E+02  0.000000000E+00  0.00000E+00  9.000E+00
      25     1     1     2     0     0 -1.018782695E+02  3.077059616E+01 -3.858401050E+01  1.686408529E+02  1.250000000E+02  0.00000E+00  9.000E+00
      25     1     1     2     0     0  8.099047518E+01 -2.846013871E+01  9.319797417E+01  1.779896035E+02  1.250000000E+02  0.00000E+00  9.000E+00
      21     1     1     2   501   511  2.088779431E+01 -2.310457450E+00  1.355547692E+02  1.371740997E+02  2.697398305E-06  0.00000E+00  9.000E+00
#rwgt            1           1   2.7922153719886714E-002           8      224697           0
</event>
<event>
      5   9999  3.79277E-02  3.87340E+01 -1.00000E+00  1.45712E-01
       2    -1     0     0   502     0  0.000000000E+00  0.000000000E+00  2.717266365E+03  2.717266365E+03  0.000000000E+00  0.00000E+00  9.000E+00
      21    -1     0     0   501   502  0.000000000E+00  0.000000000E+00 -3.834073948E+01  3.834073948E+01  0.000000000E+00  0.00000E+00  9.000E+00
      25     1     1     2     0     0 -9.312451139E+01 -3.753046104E+01  2.607330790E+02  3.060840548E+02  1.250000000E+02  0.00000E+00  9.000E+00
      25     1     1     2     0     0  7.407039892E+01  3.807073165E+00  3.255620166E+02  3.565340719E+02  1.250000000E+02  0.00000E+00  9.000E+00
       2     1     1     2   501     0  1.905411247E+01  3.372338787E+01  2.092630530E+03  2.092988978E+03  0.000000000E+00  0.00000E+00  9.000E+00
#rwgt            1           1   1.7868128218755299E-002           8      224930           0
</event>
<event>
      5   9999  3.79277E-02  4.00873E+01 -1.00000E+00  1.44781E-01
      21    -1     0     0   502   511  0.000000000E+00  0.000000000E+00  2.833645209E+02  2.833645209E+02  0.000000000E+00  0.00000E+00  9.000E+00
      21    -1     0     0   501   502  0.000000000E+00  0.000000000E+00 -2.300820336E+02  2.300820336E+02  0.000000000E+00  0.00000E+00  9.000E+00
      25     1     1     2     0     0  4.365733601E+01 -1.441977421E+02 -1.285945410E+02  2.342232008E+02  1.250000000E+02  0.00000E+00  9.000E+00
      25     1     1     2     0     0 -2.475454806E+01  1.088469708E+02  1.666477245E+02  2.363406752E+02  1.250000000E+02  0.00000E+00  9.000E+00
      21     1     1     2   501   511 -1.890278795E+01  3.535077133E+01  1.522930381E+01  4.288267856E+01  0.000000000E+00  0.00000E+00  9.000E+00
#rwgt            1           1   3.0469236613351106E-002           8      225056           0
</event>
<event>
      5   9999 -3.79277E-02  1.02527E+02 -1.00000E+00  1.23342E-01
      21    -1     0     0   502   501  0.000000000E+00  0.000000000E+00  1.111785487E+03  1.111785487E+03  0.000000000E+00  0.00000E+00  9.000E+00
      21    -1     0     0   501   512  0.000000000E+00  0.000000000E+00 -9.776437695E+01  9.776437695E+01  0.000000000E+00  0.00000E+00  9.000E+00
      25     1     1     2     0     0  1.372610156E+02  1.918591332E+02  5.943930571E+02  6.515969765E+02  1.250000000E+02  0.00000E+00  9.000E+00
      25     1     1     2     0     0 -1.442751121E+02 -8.957281057E+01  4.019654345E+02  4.539160792E+02  1.250000000E+02  0.00000E+00  9.000E+00
      21     1     1     2   502   512  7.014096481E+00 -1.022863226E+02  1.766261806E+01  1.040368080E+02  1.846782373E-06  0.00000E+00  9.000E+00
#rwgt            1           1 -0.18317244644601019                8      225234           0
</event>
<event>
      5   9999  3.79277E-02  3.10416E+01 -1.00000E+00  1.52017E-01
      21    -1     0     0   502   501  0.000000000E+00  0.000000000E+00  1.239063939E+02  1.239063939E+02  0.000000000E+00  0.00000E+00  9.000E+00
      21    -1     0     0   511   502  0.000000000E+00  0.000000000E+00 -1.372551607E+03  1.372551607E+03  0.000000000E+00  0.00000E+00  9.000E+00
      25     1     1     2     0     0  6.694067846E+01  1.930375864E+02 -7.478517978E+02  7.852718482E+02  1.250000000E+02  0.00000E+00  9.000E+00
      25     1     1     2     0     0 -5.394193733E+01 -2.212265123E+02 -5.653205626E+01  2.658416365E+02  1.250000000E+02  0.00000E+00  9.000E+00
      21     1     1     2   511   501 -1.299874112E+01  2.818892590E+01 -4.442613594E+02  4.453445164E+02  5.394796609E-06  0.00000E+00  9.000E+00
#rwgt            1           1   4.7764878328366726E-002           8      225287           0
</event>
<event>
      5   9999  3.79277E-02  5.50723E+01 -1.00000E+00  1.36723E-01
      21    -1     0     0   502   512  0.000000000E+00  0.000000000E+00  7.816899325E+01  7.816899325E+01  0.000000000E+00  0.00000E+00  9.000E+00
      21    -1     0     0   501   502  0.000000000E+00  0.000000000E+00 -1.505954233E+03  1.505954233E+03  0.000000000E+00  0.00000E+00  9.000E+00
      25     1     1     2     0     0 -8.007082916E+01 -4.944289685E+01 -2.520760368E+02  2.966871519E+02  1.250000000E+02  0.00000E+00  9.000E+00
      25     1     1     2     0     0  9.514485479E+01  1.024120560E+02 -1.208751843E+03  1.223211670E+03  1.250000000E+02  0.00000E+00  9.000E+00
      21     1     1     2   501   512 -1.507402564E+01 -5.296915913E+01  3.304263977E+01  6.422440433E+01  1.168007728E-06  0.00000E+00  9.000E+00
#rwgt            1           1   1.9436726742719641E-002           8      225473           0
</event>
<event>
      5   9999  3.79277E-02  2.17778E+01 -1.00000E+00  1.63374E-01
      21    -1     0     0   502   501  0.000000000E+00  0.000000000E+00  4.112269885E+01  4.112269885E+01  0.000000000E+00  0.00000E+00  9.000E+00
       2    -1     0     0   501     0  0.000000000E+00  0.000000000E+00 -1.189282158E+03  1.189282158E+03  0.000000000E+00  0.00000E+00  9.000E+00
      25     1     1     2     0     0  1.454053163E+01  1.186256006E+02 -2.454676336E+02  3.002712429E+02  1.250000000E+02  0.00000E+00  9.000E+00
      25     1     1     2     0     0 -1.506002868E+01 -9.685403985E+01 -4.553403613E+02  4.822523759E+02  1.250000000E+02  0.00000E+00  9.000E+00
       2     1     1     2   502     0  5.194970497E-01 -2.177156079E+01 -4.473514638E+02  4.478812375E+02  5.394796609E-06  0.00000E+00  9.000E+00
#rwgt            1           1  0.33302880887086200                8      225629           0
</event>
<event>
      5   9999  3.79277E-02  8.18626E+01 -1.00000E+00  1.27868E-01
      21    -1     0     0   502   511  0.000000000E+00  0.000000000E+00  2.848221481E+02  2.848221481E+02  0.000000000E+00  0.00000E+00  9.000E+00
      21    -1     0     0   501   502  0.000000000E+00  0.000000000E+00 -3.331873132E+02  3.331873132E+02  0.000000000E+00  0.00000E+00  9.000E+00
      25     1     1     2     0     0 -5.448620966E+00  1.119692938E+02 -1.137314120E+02  2.027970520E+02  1.250000000E+02  0.00000E+00  9.000E+00
      25     1     1     2     0     0 -5.077281424E+01 -1.714725265E+02 -9.281125752E+01  2.371068020E+02  1.250000000E+02  0.00000E+00  9.000E+00
      21     1     1     2   501   511  5.622143521E+01  5.950323271E+01  1.581775044E+02  1.781056073E+02  1.907348633E-06  0.00000E+00  9.000E+00
#rwgt            1           1   4.7104626478331302E-002           8      226039           0
</event>
<event>
      5   9999  3.79277E-02  3.75646E+01 -1.00000E+00  1.46553E-01
      21    -1     0     0   502   501  0.000000000E+00  0.000000000E+00  1.727186756E+02  1.727186756E+02  0.000000000E+00  0.00000E+00  9.000E+00
       2    -1     0     0   501     0  0.000000000E+00  0.000000000E+00 -1.394691595E+03  1.394691595E+03  0.000000000E+00  0.00000E+00  9.000E+00
      25     1     1     2     0     0 -1.258820376E+01 -2.921755081E+02 -9.368847961E+01  3.315531957E+02  1.250000000E+02  0.00000E+00  9.000E+00
      25     1     1     2     0     0 -2.153063632E+01  3.078918261E+02 -4.673086385E+02  5.738146988E+02  1.250000000E+02  0.00000E+00  9.000E+00
       2     1     1     2   502     0  3.411884008E+01 -1.571631802E+01 -6.609758016E+02  6.620423765E+02  0.000000000E+00  0.00000E+00  9.000E+00
#rwgt            1           1   3.1471181577205819E-002           8      226140           0
</event>
<event>
      5   9999  3.79277E-02  9.75461E+01 -1.00000E+00  1.24315E-01
      21    -1     0     0   511   501  0.000000000E+00  0.000000000E+00  1.370949659E+03  1.370949659E+03  0.000000000E+00  0.00000E+00  9.000E+00
      21    -1     0     0   501   502  0.000000000E+00  0.000000000E+00 -1.731811832E+02  1.731811832E+02  0.000000000E+00  0.00000E+00  9.000E+00
      25     1     1     2     0     0  6.567937715E+01 -8.627403224E+01 -7.140313169E+01  1.802231851E+02  1.250000000E+02  0.00000E+00  9.000E+00
      25     1     1     2     0     0  3.080731652E+01  7.193700947E+01  7.443519021E+01  1.651957070E+02  1.250000000E+02  0.00000E+00  9.000E+00
      21     1     1     2   511   502 -9.648669367E+01  1.433702277E+01  1.194736417E+03  1.198711950E+03  1.525878906E-05  0.00000E+00  9.000E+00
#rwgt            1           1   4.7703128889846583E-002           8      226333           0
</event>
<event>
      5   9999  3.79277E-02  8.58823E+00 -1.00000E+00  2.03722E-01
      21    -1     0     0   502   501  0.000000000E+00  0.000000000E+00  1.973264768E+02  1.973264768E+02  0.000000000E+00  0.00000E+00  9.000E+00
      21    -1     0     0   512   502  0.000000000E+00  0.000000000E+00 -2.130832174E+02  2.130832174E+02  0.000000000E+00  0.00000E+00  9.000E+00
      25     1     1     2     0     0 -1.093486407E+02 -8.516138158E+01  6.092749267E+01  1.963332512E+02  1.250000000E+02  0.00000E+00  9.000E+00
      25     1     1     2     0     0  1.123702619E+02  7.712225806E+01 -5.849701696E+01  1.939634487E+02  1.250000000E+02  0.00000E+00  9.000E+00
      21     1     1     2   512   501 -3.021621183E+00  8.039123525E+00 -1.818721630E+01  2.011299426E+01  3.371747881E-07  0.00000E+00  9.000E+00
#rwgt            1           1   3.1117820426897629E-002           8      226417           0
</event>
<event>
      5   9999  3.79277E-02  5.66777E+01 -1.00000E+00  1.36039E-01
      21    -1     0     0   502   501  0.000000000E+00  0.000000000E+00  1.667515346E+02  1.667515346E+02  0.000000000E+00  0.00000E+00  9.000E+00
      21    -1     0     0   501   511  0.000000000E+00  0.000000000E+00 -3.557479730E+02  3.557479730E+02  0.000000000E+00  0.00000E+00  9.000E+00
      25     1     1     2     0     0 -2.072975121E+00  1.581801366E+02  2.976391680E+01  2.038041795E+02  1.250000000E+02  0.00000E+00  9.000E+00
      25     1     1     2     0     0  2.917770677E+01 -1.084036991E+02 -1.260742249E+02  2.100533521E+02  1.250000000E+02  0.00000E+00  9.000E+00
      21     1     1     2   502   511 -2.710473165E+01 -4.977643751E+01 -9.268613029E+01  1.086419760E+02  1.348699152E-06  0.00000E+00  9.000E+00
#rwgt            1           1   3.5701254944417164E-002           8      226666           0
</event>
<event>
      5   9999  3.79277E-02  1.02211E+02 -1.00000E+00  1.23402E-01
      21    -1     0     0   502   512  0.000000000E+00  0.000000000E+00  2.883351365E+02  2.883351365E+02  0.000000000E+00  0.00000E+00  9.000E+00
      21    -1     0     0   501   502  0.000000000E+00  0.000000000E+00 -2.404895829E+02  2.404895829E+02  0.000000000E+00  0.00000E+00  9.000E+00
      25     1     1     2     0     0  6.338000703E+01 -9.070248090E+01  6.656217810E+01  1.797205856E+02  1.250000000E+02  0.00000E+00  9.000E+00
      25     1     1     2     0     0  2.391683949E+01  1.438661556E+02 -1.017967732E+02  2.173869108E+02  1.250000000E+02  0.00000E+00  9.000E+00
      21     1     1     2   501   512 -8.729684652E+01 -5.316367470E+01  8.308014878E+01  1.317172230E+02  1.348699152E-06  0.00000E+00  9.000E+00
#rwgt            1           1   9.8133660928904992E-002           8      226764           0
</event>
<event>
      5   9999  3.79277E-02  1.27134E+02 -1.00000E+00  1.19313E-01
      21    -1     0     0   502   511  0.000000000E+00  0.000000000E+00  3.466753966E+02  3.466753966E+02  0.000000000E+00  0.00000E+00  9.000E+00
      21    -1     0     0   501   502  0.000000000E+00  0.000000000E+00 -2.203569592E+02  2.203569592E+02  0.000000000E+00  0.00000E+00  9.000E+00
      25     1     1     2     0     0 -1.989022040E+01 -8.709186934E+01 -7.433115029E+01  1.706772817E+02  1.250000000E+02  0.00000E+00  9.000E+00
      25     1     1     2     0     0  1.399634111E+02  4.531223822E+01  5.036960616E+01  1.995120362E+02  1.250000000E+02  0.00000E+00  9.000E+00
      21     1     1     2   501   511 -1.200731907E+02  4.177963113E+01  1.502799815E+02  1.968430379E+02  3.303624740E-06  0.00000E+00  9.000E+00
#rwgt            2          11   2.0447667929967212E-003           8      226814           0
</event>
<event>
      5   9999  3.79277E-02  6.91803E+01 -1.00000E+00  1.31480E-01
      21    -1     0     0   502   501  0.000000000E+00  0.000000000E+00  6.236024711E+01  6.236024711E+01  0.000000000E+00  0.00000E+00  9.000E+00
       2    -1     0     0   501     0  0.000000000E+00  0.000000000E+00 -2.549141086E+03  2.549141086E+03  0.000000000E+00  0.00000E+00  9.000E+00
      25     1     1     2     0     0 -1.612635607E+02  4.665713762E+01 -5.248565241E+02  5.650506131E+02  1.250000000E+02  0.00000E+00  9.000E+00
      25     1     1     2     0     0  1.250775473E+02  1.230457874E+01 -1.472040552E+02  2.304123030E+02  1.250000000E+02  0.00000E+00  9.000E+00
       2     1     1     2   502     0  3.618601339E+01 -5.896171636E+01 -1.814720260E+03  1.816038417E+03  2.157918644E-05  0.00000E+00  9.000E+00
#rwgt            1           1   4.3011450951482365E-002           8      226834           0
</event>
<event>
      5   9999  3.79277E-02  1.22518E+01 -1.00000E+00  1.86085E-01
      21    -1     0     0   502   501  0.000000000E+00  0.000000000E+00  8.814480919E+02  8.814480919E+02  0.000000000E+00  0.00000E+00  9.000E+00
      21    -1     0     0   511   502  0.000000000E+00  0.000000000E+00 -5.641248606E+01  5.641248606E+01  0.000000000E+00  0.00000E+00  9.000E+00
      25     1     1     2     0     0  1.275631719E+02 -5.866279676E+00  6.597579863E+02  6.835293531E+02  1.250000000E+02  0.00000E+00  9.000E+00
      25     1     1     2     0     0 -1.251381665E+02 -6.143155429E+00  1.651662568E+02  2.420788951E+02  1.250000000E+02  0.00000E+00  9.000E+00
      21     1     1     2   511   501 -2.425005432E+00  1.200943510E+01  1.113627307E-01  1.225232976E+01  2.185494822E-07  0.00000E+00  9.000E+00
#rwgt            1           1   4.1200658868652713E-002           8      226960           0
</event>
<event>
      5   9999  3.79277E-02  3.81224E+01 -1.00000E+00  1.46147E-01
      21    -1     0     0   502   501  0.000000000E+00  0.000000000E+00  2.078464769E+02  2.078464769E+02  0.000000000E+00  0.00000E+00  9.000E+00
       2    -1     0     0   501     0  0.000000000E+00  0.000000000E+00 -1.485475778E+03  1.485475778E+03  0.000000000E+00  0.00000E+00  9.000E+00
      25     1     1     2     0     0 -5.975894117E+01 -7.892354928E+01 -1.765448568E+02  2.378931360E+02  1.250000000E+02  0.00000E+00  9.000E+00
      25     1     1     2     0     0  2.334650804E+01  6.763401173E+01  1.475617579E+02  2.062010945E+02  1.250000000E+02  0.00000E+00  9.000E+00
       2     1     1     2   502     0  3.641243313E+01  1.128953755E+01 -1.248646202E+03  1.249228025E+03  1.525878906E-05  0.00000E+00  9.000E+00
#rwgt            1           1   3.0733950097945394E-002           8      227177           0
</event>
<event>
      5   9999  3.79277E-02  2.74221E+02 -1.00000E+00  1.06876E-01
      21    -1     0     0   502   501  0.000000000E+00  0.000000000E+00  1.223933718E+02  1.223933718E+02  0.000000000E+00  0.00000E+00  9.000E+00
      21    -1     0     0   501   511  0.000000000E+00  0.000000000E+00 -2.229266377E+03  2.229266377E+03  0.000000000E+00  0.00000E+00  9.000E+00
      25     1     1     2     0     0  2.882978116E+02 -1.085423319E+02 -1.996536859E+02  3.877933216E+02  1.250000000E+02  0.00000E+00  9.000E+00
      25     1     1     2     0     0 -1.484131801E+01  1.290022457E+02 -5.359181692E+02  5.654158895E+02  1.250000000E+02  0.00000E+00  9.000E+00
      21     1     1     2   502   511 -2.734564936E+02 -2.045991379E+01 -1.371301150E+03  1.398450538E+03  2.157918644E-05  0.00000E+00  9.000E+00
#rwgt            2          11   5.3710095641903088E-004           8      227335           0
</event>
<event>
      5   9999  3.79277E-02  8.01360E+01 -1.00000E+00  1.28314E-01
      21    -1     0     0   502   501  0.000000000E+00  0.000000000E+00  1.948965746E+02  1.948965746E+02  0.000000000E+00  0.00000E+00  9.000E+00
       2    -1     0     0   501     0  0.000000000E+00  0.000000000E+00 -9.029968400E+02  9.029968400E+02  0.000000000E+00  0.00000E+00  9.000E+00
      25     1     1     2     0     0  1.554885441E+02  5.950041803E+01  1.003058538E+02  2.310914352E+02  1.250000000E+02  0.00000E+00  9.000E+00
      25     1     1     2     0     0 -9.631733823E+01 -1.135425722E+02 -3.405539884E+02  3.921364104E+02  1.250000000E+02  0.00000E+00  9.000E+00
       2     1     1     2   502     0 -5.917120589E+01  5.404215420E+01 -4.678521308E+02  4.746655690E+02  5.394796609E-06  0.00000E+00  9.000E+00
#rwgt            1           1   5.2797550843166341E-002           8      227370           0
</event>
<event>
      5   9999  3.79277E-02  6.05453E+01 -1.00000E+00  1.34494E-01
      21    -1     0     0   502   511  0.000000000E+00  0.000000000E+00  4.221385905E+02  4.221385905E+02  0.000000000E+00  0.00000E+00  9.000E+00
      21    -1     0     0   501   502  0.000000000E+00  0.000000000E+00 -8.391860619E+02  8.391860619E+02  0.000000000E+00  0.00000E+00  9.000E+00
      25     1     1     2     0     0  7.923199701E+01  8.311847991E+01 -1.470053963E+01  1.703745783E+02  1.250000000E+02  0.00000E+00  9.000E+00
      25     1     1     2     0     0 -2.483462298E+01 -1.097014399E+02 -7.344087100E+02  7.534137759E+02  1.250000000E+02  0.00000E+00  9.000E+00
      21     1     1     2   501   511 -5.439737403E+01  2.658295998E+01  3.320617782E+02  3.375362982E+02  3.814697266E-06  0.00000E+00  9.000E+00
#rwgt            1           1   2.8405199183578912E-002           8      227459           0
</event>
<event>
      5   9999  3.79277E-02  1.54126E+01 -1.00000E+00  1.76281E-01
      21    -1     0     0   502   501  0.000000000E+00  0.000000000E+00  6.607439544E+01  6.607439544E+01  0.000000000E+00  0.00000E+00  9.000E+00
      21    -1     0     0   501   512  0.000000000E+00  0.000000000E+00 -3.589461163E+02  3.589461163E+02  0.000000000E+00  0.00000E+00  9.000E+00
      25     1     1     2     0     0  8.442252246E+00  1.297384255E+01 -3.594901259E+01  1.309844408E+02  1.250000000E+02  0.00000E+00  9.000E+00
      25     1     1     2     0     0  1.018299293E+00 -8.064302454E-01 -2.072939287E+02  2.420691226E+02  1.250000000E+02  0.00000E+00  9.000E+00
      21     1     1     2   502   512 -9.460551538E+00 -1.216741230E+01 -4.962877962E+01  5.196694839E+01  6.743495762E-07  0.00000E+00  9.000E+00
#rwgt            1           1   5.2290008849690969E-002           8      227614           0
</event>
<event>
      5   9999  3.79277E-02  6.04624E+01 -1.00000E+00  1.34525E-01
      21    -1     0     0   511   501  0.000000000E+00  0.000000000E+00  2.191493359E+03  2.191493359E+03  0.000000000E+00  0.00000E+00  9.000E+00
      21    -1     0     0   501   502  0.000000000E+00  0.000000000E+00 -9.761577848E+01  9.761577848E+01  0.000000000E+00  0.00000E+00  9.000E+00
      25     1     1     2     0     0 -1.136016707E+01 -2.861015998E+02  5.461415012E+02  6.291889368E+02  1.250000000E+02  0.00000E+00  9.000E+00
      25     1     1     2     0     0  6.820551209E+01  2.655027901E+02  3.548244654E+02  4.654773085E+02  1.250000000E+02  0.00000E+00  9.000E+00
      21     1     1     2   511   502 -5.684534502E+01  2.059880972E+01  1.192911614E+03  1.194442892E+03  0.000000000E+00  0.00000E+00  9.000E+00
#rwgt            1           1   3.1830046934573995E-002           8      227728           0
</event>
<event>
      5   9999  3.79277E-02  1.14839E+01 -1.00000E+00  1.89058E-01
      21    -1     0     0   502   512  0.000000000E+00  0.000000000E+00  6.284143747E+01  6.284143747E+01  0.000000000E+00  0.00000E+00  9.000E+00
      21    -1     0     0   501   502  0.000000000E+00  0.000000000E+00 -8.470356107E+02  8.470356107E+02  0.000000000E+00  0.00000E+00  9.000E+00
      25     1     1     2     0     0  4.809744250E+00  9.363964355E+01 -6.924728031E+02  7.098838634E+02  1.250000000E+02  0.00000E+00  9.000E+00
      25     1     1     2     0     0 -1.983437520E+00 -1.047702973E+02 -9.403685581E+01  1.882781970E+02  1.250000000E+02  0.00000E+00  9.000E+00
      21     1     1     2   501   512 -2.826306729E+00  1.113065374E+01  2.315485740E+00  1.171498770E+01  3.436971484E-07  0.00000E+00  9.000E+00
#rwgt            1           1   2.1025629414331910E-002           8      227886           0
</event>
<event>
      5   9999  3.79277E-02  2.25302E+01 -1.00000E+00  1.62211E-01
      21    -1     0     0   502   511  0.000000000E+00  0.000000000E+00  1.404356124E+02  1.404356124E+02  0.000000000E+00  0.00000E+00  9.000E+00
      21    -1     0     0   501   502  0.000000000E+00  0.000000000E+00 -8.609898713E+02  8.609898713E+02  0.000000000E+00  0.00000E+00  9.000E+00
      25     1     1     2     0     0 -9.283437838E+01 -6.289938382E+01 -4.705402916E+02  4.996075663E+02  1.250000000E+02  0.00000E+00  9.000E+00
      25     1     1     2     0     0  7.055405761E+01  6.624592463E+01 -3.580822854E+02  3.914260092E+02  1.250000000E+02  0.00000E+00  9.000E+00
      21     1     1     2   501   511  2.228032077E+01 -3.346540807E+00  1.080683180E+02  1.103919082E+02  2.697398305E-06  0.00000E+00  9.000E+00
#rwgt            1           1   6.1755620487126371E-002           8      228157           0
</event>
<event>
      5   9999  3.79277E-02  4.98096E+01 -1.00000E+00  1.39170E-01
      21    -1     0     0   502   501  0.000000000E+00  0.000000000E+00  2.403760620E+02  2.403760620E+02  0.000000000E+00  0.00000E+00  9.000E+00
      21    -1     0     0   501   512  0.000000000E+00  0.000000000E+00 -1.983300386E+02  1.983300386E+02  0.000000000E+00  0.00000E+00  9.000E+00
      25     1     1     2     0     0  2.817724013E+01 -3.898088525E+01  1.737764819E+02  2.194008476E+02  1.250000000E+02  0.00000E+00  9.000E+00
      25     1     1     2     0     0 -7.552436409E+00 -6.357987038E+00 -9.035660744E+01  1.545534852E+02  1.250000000E+02  0.00000E+00  9.000E+00
      21     1     1     2   502   512 -2.062480372E+01  4.533887229E+01 -4.137385112E+01  6.475176774E+01  4.768371582E-07  0.00000E+00  9.000E+00
#rwgt            1           1   3.1428329676521510E-002           8      228271           0
</event>
<event>
      5   9999  3.79277E-02  6.06034E+01 -1.00000E+00  1.34472E-01
       1    -1     0     0   502     0  0.000000000E+00  0.000000000E+00  8.489851922E+02  8.489851922E+02  0.000000000E+00  0.00000E+00  9.000E+00
      21    -1     0     0   501   502  0.000000000E+00  0.000000000E+00 -4.412519087E+02  4.412519087E+02  0.000000000E+00  0.00000E+00  9.000E+00
      25     1     1     2     0     0 -5.586630931E+01  7.678814638E+00 -3.806702679E+02  4.046169319E+02  1.250000000E+02  0.00000E+00  9.000E+00
      25     1     1     2     0     0  7.321240238E+00  2.860000916E+01  3.965253098E+01  1.344205501E+02  1.250000000E+02  0.00000E+00  9.000E+00
       1     1     1     2   501     0  4.854506907E+01 -3.627882380E+01  7.487510205E+02  7.511996189E+02  1.078959322E-05  0.00000E+00  9.000E+00
#rwgt            1           1   4.1895363044396276E-002           8      228349           0
</event>
<event>
      5   9999  3.79277E-02  2.53258E+01 -1.00000E+00  1.58331E-01
      21    -1     0     0   502   501  0.000000000E+00  0.000000000E+00  1.220444738E+02  1.220444738E+02  0.000000000E+00  0.00000E+00  9.000E+00
      21    -1     0     0   501   511  0.000000000E+00  0.000000000E+00 -3.406765318E+02  3.406765318E+02  0.000000000E+00  0.00000E+00  9.000E+00
      25     1     1     2     0     0  2.684857731E+01  1.113115225E+02 -1.048067707E+02  1.993001764E+02  1.250000000E+02  0.00000E+00  9.000E+00
      25     1     1     2     0     0 -5.217436177E+01 -1.113111154E+02 -3.258308072E+01  1.783227007E+02  1.250000000E+02  0.00000E+00  9.000E+00
      21     1     1     2   502   511  2.532578446E+01 -4.071087072E-04 -8.124220655E+01  8.509812855E+01  9.536743164E-07  0.00000E+00  9.000E+00
#rwgt            1           1   3.7176991621293093E-002           8      228534           0
</event>
<event>
      5   9999  3.79277E-02  1.37362E+01 -1.00000E+00  1.81062E-01
      21    -1     0     0   502   501  0.000000000E+00  0.000000000E+00  1.623254917E+03  1.623254917E+03  0.000000000E+00  0.00000E+00  9.000E+00
      21    -1     0     0   512   502  0.000000000E+00  0.000000000E+00 -2.229143059E+01  2.229143059E+01  0.000000000E+00  0.00000E+00  9.000E+00
      25     1     1     2     0     0  9.581458726E+01  9.411808350E+01  6.749545514E+02  6.994478503E+02  1.250000000E+02  0.00000E+00  9.000E+00
      25     1     1     2     0     0 -8.944961356E+01 -8.194553323E+01  8.998325461E+02  9.165369141E+02  1.250000000E+02  0.00000E+00  9.000E+00
      21     1     1     2   512   501 -6.364973697E+00 -1.217255027E+01  2.617638887E+01  2.956158326E+01  5.840038640E-07  0.00000E+00  9.000E+00
#rwgt            1           1   9.4363673790934910E-002           8      228658           0
</event>
<event>
      5   9999 -3.79277E-02  2.12798E+01 -1.00000E+00  1.64177E-01
       1    -1     0     0   502     0  0.000000000E+00  0.000000000E+00  4.895539630E+02  4.895539630E+02  0.000000000E+00  0.00000E+00  9.000E+00
      21    -1     0     0   501   502  0.000000000E+00  0.000000000E+00 -2.295027820E+03  2.295027820E+03  0.000000000E+00  0.00000E+00  9.000E+00
      25     1     1     2     0     0  1.033493867E+02 -1.241050535E+02 -1.611244666E+03  1.624135934E+03  1.250000000E+02  0.00000E+00  9.000E+00
      25     1     1     2     0     0 -1.154905906E+02  1.066287697E+02 -6.622039089E+02  6.919875635E+02  1.250000000E+02  0.00000E+00  9.000E+00
       1     1     1     2   501     0  1.214120387E+01  1.747628387E+01  4.679747173E+02  4.684582856E+02  1.206313194E-05  0.00000E+00  9.000E+00
#rwgt            1           1  -3.6141773847827102E-002           8      228968           0
</event>
<event>
      5   9999  3.79277E-02  6.13896E+01 -1.00000E+00  1.34174E-01
       1    -1     0     0   502     0  0.000000000E+00  0.000000000E+00  8.753953493E+02  8.753953493E+02  0.000000000E+00  0.00000E+00  9.000E+00
      21    -1     0     0   501   502  0.000000000E+00  0.000000000E+00 -1.867929642E+02  1.867929642E+02  0.000000000E+00  0.00000E+00  9.000E+00
      25     1     1     2     0     0 -2.819942576E+02 -1.143762680E+02  6.822735046E+01  3.359801532E+02  1.250000000E+02  0.00000E+00  9.000E+00
      25     1     1     2     0     0  2.324998729E+02  1.506941481E+02  4.330223391E+02  5.290541214E+02  1.250000000E+02  0.00000E+00  9.000E+00
       1     1     1     2   501     0  4.949438470E+01 -3.631788004E+01  1.873526955E+02  1.971540389E+02  2.697398305E-06  0.00000E+00  9.000E+00
#rwgt            1           1   3.2951457293985159E-002           8      229233           0
</event>
<event>
      5   9999  3.79277E-02  2.53769E+02 -1.00000E+00  1.08009E-01
      21    -1     0     0   502   501  0.000000000E+00  0.000000000E+00  9.612416923E+02  9.612416923E+02  0.000000000E+00  0.00000E+00  9.000E+00
      21    -1     0     0   501   511  0.000000000E+00  0.000000000E+00 -5.360398247E+02  5.360398247E+02  0.000000000E+00  0.00000E+00  9.000E+00
      25     1     1     2     0     0 -3.426963868E+02  4.590878684E+02  3.261132803E+02  6.709525736E+02  1.250000000E+02  0.00000E+00  9.000E+00
      25     1     1     2     0     0  1.279582949E+02 -3.238614519E+02  3.205405354E+02  4.895209905E+02  1.250000000E+02  0.00000E+00  9.000E+00
      21     1     1     2   502   511  2.147380919E+02 -1.352264164E+02 -2.214519481E+02  3.368079529E+02  3.814697266E-06  0.00000E+00  9.000E+00
#rwgt            2          11   1.6102087564080654E-003           8      229409           0
</event>
<event>
      5   9999  3.79277E-02  3.71222E+01 -1.00000E+00  1.46880E-01
      21    -1     0     0   502   501  0.000000000E+00  0.000000000E+00  1.823637726E+01  1.823637726E+01  0.000000000E+00  0.00000E+00  9.000E+00
       2    -1     0     0   501     0  0.000000000E+00  0.000000000E+00 -2.108965248E+03  2.108965248E+03  0.000000000E+00  0.00000E+00  9.000E+00
      25     1     1     2     0     0 -3.389044514E+01 -3.150829987E+01 -3.178284031E+02  3.446465277E+02  1.250000000E+02  0.00000E+00  9.000E+00
      25     1     1     2     0     0  7.056568825E+01  2.576527368E+01 -1.513841493E+03  1.520849904E+03  1.250000000E+02  0.00000E+00  9.000E+00
       2     1     1     2   502     0 -3.667524312E+01  5.743026189E+00 -2.590589749E+02  2.617051935E+02  5.394796609E-06  0.00000E+00  9.000E+00
#rwgt            1           1   9.9697464683799281E-002           8      229444           0
</event>
<event>
      5   9999  3.79277E-02  5.38289E+01 -1.00000E+00  1.37271E-01
      21    -1     0     0   511   501  0.000000000E+00  0.000000000E+00  4.786219749E+02  4.786219749E+02  0.000000000E+00  0.00000E+00  9.000E+00
      21    -1     0     0   501   502  0.000000000E+00  0.000000000E+00 -1.287694300E+02  1.287694300E+02  0.000000000E+00  0.00000E+00  9.000E+00
      25     1     1     2     0     0 -1.328333673E+02  3.485108210E+01  2.593208139E+02  3.189538931E+02  1.250000000E+02  0.00000E+00  9.000E+00
      25     1     1     2     0     0  1.731943431E+02  7.654748860E-01  4.579894144E+01  2.184477271E+02  1.250000000E+02  0.00000E+00  9.000E+00
      21     1     1     2   511   502 -4.036097583E+01 -3.561655699E+01  4.473278957E+01  6.998978471E+01  4.768371582E-07  0.00000E+00  9.000E+00
#rwgt            1           1   2.7934448835072800E-002           8      229600           0
</event>
<event>
      5   9999  3.79277E-02  6.41643E+01 -1.00000E+00  1.33164E-01
      21    -1     0     0   502   512  0.000000000E+00  0.000000000E+00  1.234688953E+03  1.234688953E+03  0.000000000E+00  0.00000E+00  9.000E+00
      21    -1     0     0   501   502  0.000000000E+00  0.000000000E+00 -6.029013373E+01  6.029013373E+01  0.000000000E+00  0.00000E+00  9.000E+00
      25     1     1     2     0     0 -8.324079678E+01 -1.900367103E+02  3.740011855E+02  4.455837388E+02  1.250000000E+02  0.00000E+00  9.000E+00
      25     1     1     2     0     0  9.833347380E+01  1.276727391E+02  4.626722533E+02  5.056287318E+02  1.250000000E+02  0.00000E+00  9.000E+00
      21     1     1     2   501   512 -1.509267702E+01  6.236397121E+01  3.377253804E+02  3.437666162E+02  3.814697266E-06  0.00000E+00  9.000E+00
#rwgt            1           1   2.6328170295570271E-002           8      229741           0
</event>
<event>
      5   9999  3.79277E-02  5.89862E+01 -1.00000E+00  1.35100E-01
      21    -1     0     0   502   501  0.000000000E+00  0.000000000E+00  1.979124224E+02  1.979124224E+02  0.000000000E+00  0.00000E+00  9.000E+00
      21    -1     0     0   501   511  0.000000000E+00  0.000000000E+00 -3.889454186E+02  3.889454186E+02  0.000000000E+00  0.00000E+00  9.000E+00
      25     1     1     2     0     0 -1.731863126E+02 -1.575916314E+02 -8.493631803E+01  2.786894316E+02  1.250000000E+02  0.00000E+00  9.000E+00
      25     1     1     2     0     0  1.651857695E+02  9.915055355E+01 -7.570250696E+01  2.418119936E+02  1.250000000E+02  0.00000E+00  9.000E+00
      21     1     1     2   502   511  8.000543153E+00  5.844107788E+01 -3.039417123E+01  6.635641581E+01  1.261592536E-06  0.00000E+00  9.000E+00
#rwgt            1           1   3.4091003473164155E-002           8      229813           0
</event>
<event>
      5   9999  3.79277E-02  1.38337E+01 -1.00000E+00  1.80760E-01
      21    -1     0     0   502   512  0.000000000E+00  0.000000000E+00  1.565759281E+03  1.565759281E+03  0.000000000E+00  0.00000E+00  9.000E+00
      21    -1     0     0   501   502  0.000000000E+00  0.000000000E+00 -3.571475188E+01  3.571475188E+01  0.000000000E+00  0.00000E+00  9.000E+00
      25     1     1     2     0     0  1.124894328E+02 -9.140016369E+01  3.466855284E+02  3.960097448E+02  1.250000000E+02  0.00000E+00  9.000E+00
      25     1     1     2     0     0 -1.157800130E+02  1.048368517E+02  9.088458710E+02  9.306028122E+02  1.250000000E+02  0.00000E+00  9.000E+00
      21     1     1     2   501   512  3.290580202E+00 -1.343668799E+01  2.745131301E+02  2.748614762E+02  3.814697266E-06  0.00000E+00  9.000E+00
#rwgt            1           1   3.5189568899596735E-002           8      229992           0
</event>
<event>
      5   9999  3.79277E-02  1.53726E+02 -1.00000E+00  1.15973E-01
      21    -1     0     0   502   501  0.000000000E+00  0.000000000E+00  1.269208958E+02  1.269208958E+02  0.000000000E+00  0.00000E+00  9.000E+00
      21    -1     0     0   511   502  0.000000000E+00  0.000000000E+00 -8.474300444E+02  8.474300444E+02  0.000000000E+00  0.00000E+00  9.000E+00
      25     1     1     2     0     0 -9.858500866E+01  1.728030700E+02 -3.747452324E+02  4.423108569E+02  1.250000000E+02  0.00000E+00  9.000E+00
      25     1     1     2     0     0 -4.368023940E+01 -1.145605003E+02 -2.569273815E+01  1.769666306E+02  1.250000000E+02  0.00000E+00  9.000E+00
      21     1     1     2   511   501  1.422652481E+02 -5.824256970E+01 -3.200711781E+02  3.550734526E+02  3.814697266E-06  0.00000E+00  9.000E+00
#rwgt            2          11   1.6099718119369363E-003           8      230194           0
</event>
<event>
      5   9999  3.79277E-02  3.82108E+01 -1.00000E+00  1.46084E-01
      21    -1     0     0   512   501  0.000000000E+00  0.000000000E+00  1.509916098E+03  1.509916098E+03  0.000000000E+00  0.00000E+00  9.000E+00
      21    -1     0     0   501   502  0.000000000E+00  0.000000000E+00 -1.445675894E+02  1.445675894E+02  0.000000000E+00  0.00000E+00  9.000E+00
      25     1     1     2     0     0  1.101144549E+02 -4.990866113E+01 -1.158883000E-01  1.738996293E+02  1.250000000E+02  0.00000E+00  9.000E+00
      25     1     1     2     0     0 -1.123290981E+02  8.805523089E+01  9.985972579E+01  2.144026931E+02  1.250000000E+02  0.00000E+00  9.000E+00
      21     1     1     2   512   502  2.214643220E+00 -3.814656977E+01  1.265604671E+03  1.266181365E+03  1.525878906E-05  0.00000E+00  9.000E+00
#rwgt            1           1   3.6845625659435263E-002           8      230259           0
</event>
<event>
      5   9999  3.79277E-02  6.23567E+01 -1.00000E+00  1.33815E-01
      21    -1     0     0   502   501  0.000000000E+00  0.000000000E+00  6.564498299E+02  6.564498299E+02  0.000000000E+00  0.00000E+00  9.000E+00
      21    -1     0     0   511   502  0.000000000E+00  0.000000000E+00 -9.507126710E+01  9.507126710E+01  0.000000000E+00  0.00000E+00  9.000E+00
      25     1     1     2     0     0  1.218969334E+02 -1.830534014E+01  5.000939556E+02  5.300121812E+02  1.250000000E+02  0.00000E+00  9.000E+00
      25     1     1     2     0     0 -6.914628383E+01 -1.494705256E+01  6.777057864E+01  1.588158502E+02  1.250000000E+02  0.00000E+00  9.000E+00
      21     1     1     2   511   501 -5.275064954E+01  3.325239271E+01 -6.485971402E+00  6.269306559E+01  8.429369702E-07  0.00000E+00  9.000E+00
#rwgt            1           1   4.1615988303792616E-002           8      230335           0
</event>
<event>
      5   9999  3.79277E-02  6.93872E+01 -1.00000E+00  1.31414E-01
      21    -1     0     0   502   501  0.000000000E+00  0.000000000E+00  9.680040262E+01  9.680040262E+01  0.000000000E+00  0.00000E+00  9.000E+00
      21    -1     0     0   512   502  0.000000000E+00  0.000000000E+00 -5.615884324E+02  5.615884324E+02  0.000000000E+00  0.00000E+00  9.000E+00
      25     1     1     2     0     0  1.116208734E+02 -1.057826256E+02 -1.864368473E+02  2.720898405E+02  1.250000000E+02  0.00000E+00  9.000E+00
      25     1     1     2     0     0 -1.151783756E+02  3.648671082E+01 -1.139714098E+02  2.078745307E+02  1.250000000E+02  0.00000E+00  9.000E+00
      21     1     1     2   512   501  3.557502102E+00  6.929591477E+01 -1.643797726E+02  1.784244638E+02  0.000000000E+00  0.00000E+00  9.000E+00
#rwgt            1           1   3.3078873188696470E-002           8      230516           0
</event>
<event>
      5   9999  3.79277E-02  8.35848E+01 -1.00000E+00  1.27435E-01
      21    -1     0     0   511   501  0.000000000E+00  0.000000000E+00  1.643949109E+03  1.643949109E+03  0.000000000E+00  0.00000E+00  9.000E+00
      21    -1     0     0   501   502  0.000000000E+00  0.000000000E+00 -8.912726486E+01  8.912726486E+01  0.000000000E+00  0.00000E+00  9.000E+00
      25     1     1     2     0     0  4.658340469E+01 -1.925774961E+02  1.380599665E+02  2.719221579E+02  1.250000000E+02  0.00000E+00  9.000E+00
      25     1     1     2     0     0  3.678446861E+01  1.985951200E+02  6.928694685E+02  7.324521958E+02  1.250000000E+02  0.00000E+00  9.000E+00
      21     1     1     2   511   502 -8.336787330E+01 -6.017623865E+00  7.238924093E+02  7.287020203E+02  0.000000000E+00  0.00000E+00  9.000E+00
#rwgt            1           1   3.7157502608174860E-002           8      230758           0
</event>
<event>
      5   9999  3.79277E-02  4.79061E+01 -1.00000E+00  1.40144E-01
      21    -1     0     0   512   501  0.000000000E+00  0.000000000E+00  1.046211572E+03  1.046211572E+03  0.000000000E+00  0.00000E+00  9.000E+00
      21    -1     0     0   501   502  0.000000000E+00  0.000000000E+00 -1.201125942E+02  1.201125942E+02  0.000000000E+00  0.00000E+00  9.000E+00
      25     1     1     2     0     0 -1.116237208E+02  1.117638095E+02  1.193832275E+01  2.017883240E+02  1.250000000E+02  0.00000E+00  9.000E+00
      25     1     1     2     0     0  1.343197635E+02 -1.539524962E+02  5.885600454E+02  6.354298521E+02  1.250000000E+02  0.00000E+00  9.000E+00
      21     1     1     2   512   502 -2.269604270E+01  4.218868672E+01  3.256006101E+02  3.291059904E+02  3.814697266E-06  0.00000E+00  9.000E+00
#rwgt            1           1   4.1434266545712264E-002           8      230902           0
</event>
<event>
      5   9999  3.79277E-02  3.36216E+01 -1.00000E+00  1.49680E-01
      21    -1     0     0   511   501  0.000000000E+00  0.000000000E+00  2.427107333E+03  2.427107333E+03  0.000000000E+00  0.00000E+00  9.000E+00
      21    -1     0     0   501   502  0.000000000E+00  0.000000000E+00 -3.118973465E+01  3.118973465E+01  0.000000000E+00  0.00000E+00  9.000E+00
      25     1     1     2     0     0  1.025111521E+01  5.941772668E+01  1.578833678E+02  2.102087283E+02  1.250000000E+02  0.00000E+00  9.000E+00
      25     1     1     2     0     0 -3.543552131E+01 -8.169226180E+01  1.236252453E+03  1.245742521E+03  1.250000000E+02  0.00000E+00  9.000E+00
      21     1     1     2   511   502  2.518440610E+01  2.227453511E+01  1.001781778E+03  1.002345818E+03  1.868812365E-05  0.00000E+00  9.000E+00
#rwgt            1           1   5.4458173986425364E-002           8      231040           0
</event>
<event>
      5   9999  3.79277E-02  2.20397E+02 -1.00000E+00  1.10134E-01
       2    -1     0     0   502     0  0.000000000E+00  0.000000000E+00  1.326966551E+03  1.326966551E+03  0.000000000E+00  0.00000E+00  9.000E+00
      21    -1     0     0   501   502  0.000000000E+00  0.000000000E+00 -2.234693956E+02  2.234693956E+02  0.000000000E+00  0.00000E+00  9.000E+00
      25     1     1     2     0     0  4.893462750E+00  1.375328071E+02  3.366538045E+02  3.845776945E+02  1.250000000E+02  0.00000E+00  9.000E+00
      25     1     1     2     0     0  1.710043039E+02 -4.737404233E+00 -1.258025692E+02  2.464065774E+02  1.250000000E+02  0.00000E+00  9.000E+00
       2     1     1     2   501     0 -1.758977666E+02 -1.327954029E+02  8.926459203E+02  9.194516748E+02  0.000000000E+00  0.00000E+00  9.000E+00
#rwgt            2          18   7.5449638474876411E-004           8      231148           0
</event>
<event>
      5   9999  3.79277E-02  2.23152E+01 -1.00000E+00  1.62537E-01
      21    -1     0     0   511   501  0.000000000E+00  0.000000000E+00  5.496431172E+02  5.496431172E+02  0.000000000E+00  0.00000E+00  9.000E+00
      21    -1     0     0   501   502  0.000000000E+00  0.000000000E+00 -1.548585097E+02  1.548585097E+02  0.000000000E+00  0.00000E+00  9.000E+00
      25     1     1     2     0     0 -4.127585966E+01  1.733435842E+02 -3.179970215E+01  2.199725343E+02  1.250000000E+02  0.00000E+00  9.000E+00
      25     1     1     2     0     0  4.823170731E+01 -1.521401434E+02  4.075984567E+02  4.552300767E+02  1.250000000E+02  0.00000E+00  9.000E+00
      21     1     1     2   511   502 -6.955847654E+00 -2.120344086E+01  1.898585294E+01  2.929901590E+01  2.384185791E-07  0.00000E+00  9.000E+00
#rwgt            1           1   4.6690335913470410E-002           8      231197           0
</event>
<event>
      5   9999  3.79277E-02  5.76848E+01 -1.00000E+00  1.35623E-01
      21    -1     0     0   512   501  0.000000000E+00  0.000000000E+00  3.395487646E+02  3.395487646E+02  0.000000000E+00  0.00000E+00  9.000E+00
      21    -1     0     0   501   502  0.000000000E+00  0.000000000E+00 -1.482915914E+02  1.482915914E+02  0.000000000E+00  0.00000E+00  9.000E+00
      25     1     1     2     0     0 -2.446382151E+00 -1.108003702E+02  2.078185517E+02  2.666388142E+02  1.250000000E+02  0.00000E+00  9.000E+00
      25     1     1     2     0     0  3.105562591E+01  6.070998602E+01 -5.416221707E+01  1.523440188E+02  1.250000000E+02  0.00000E+00  9.000E+00
      21     1     1     2   512   502 -2.860924376E+01  5.009038415E+01  3.760083862E+01  6.885752303E+01  1.348699152E-06  0.00000E+00  9.000E+00
#rwgt            1           1   4.4996420689661303E-002           8      231706           0
</event>
<event>
      5   9999  3.79277E-02  2.48884E+01 -1.00000E+00  1.58897E-01
      21    -1     0     0   502   511  0.000000000E+00  0.000000000E+00  1.363323453E+03  1.363323453E+03  0.000000000E+00  0.00000E+00  9.000E+00
      21    -1     0     0   501   502  0.000000000E+00  0.000000000E+00 -4.976079766E+01  4.976079766E+01  0.000000000E+00  0.00000E+00  9.000E+00
      25     1     1     2     0     0  7.711817673E+01 -1.915067326E+02  4.562203900E+02  5.161240995E+02  1.250000000E+02  0.00000E+00  9.000E+00
      25     1     1     2     0     0 -9.810106264E+01  1.781219755E+02  7.811917132E+02  8.168456093E+02  1.250000000E+02  0.00000E+00  9.000E+00
      21     1     1     2   501   511  2.098288591E+01  1.338475711E+01  7.615055170E+01  8.011454143E+01  1.348699152E-06  0.00000E+00  9.000E+00
#rwgt            1           1   3.5728518122943191E-002           8      231780           0
</event>
<event>
      5   9999  3.79277E-02  3.70204E+01 -1.00000E+00  1.46956E-01
      21    -1     0     0   502   512  0.000000000E+00  0.000000000E+00  9.545658462E+02  9.545658462E+02  0.000000000E+00  0.00000E+00  9.000E+00
      21    -1     0     0   501   502  0.000000000E+00  0.000000000E+00 -8.269670012E+01  8.269670012E+01  0.000000000E+00  0.00000E+00  9.000E+00
      25     1     1     2     0     0  6.367268564E+01  1.035671339E+02  1.883200640E+02  2.566511419E+02  1.250000000E+02  0.00000E+00  9.000E+00
      25     1     1     2     0     0 -8.367565885E+01 -1.347181965E+02  1.650733442E+02  2.608156769E+02  1.250000000E+02  0.00000E+00  9.000E+00
      21     1     1     2   501   512  2.000297320E+01  3.115106254E+01  5.184757378E+02  5.197957275E+02  0.000000000E+00  0.00000E+00  9.000E+00
#rwgt            1           1  0.22552170380106612                8      231975           0
</event>
<event>
      5   9999  3.79277E-02  8.23584E+01 -1.00000E+00  1.27742E-01
      21    -1     0     0   502   501  0.000000000E+00  0.000000000E+00  2.668120228E+02  2.668120228E+02  0.000000000E+00  0.00000E+00  9.000E+00
      21    -1     0     0   501   511  0.000000000E+00  0.000000000E+00 -2.969216810E+02  2.969216810E+02  0.000000000E+00  0.00000E+00  9.000E+00
      25     1     1     2     0     0  2.313014822E+01 -9.492660402E+01  6.370422827E+01  1.709657644E+02  1.250000000E+02  0.00000E+00  9.000E+00
      25     1     1     2     0     0 -1.010613202E+02  1.215656320E+02  6.675983402E+01  2.123051313E+02  1.250000000E+02  0.00000E+00  9.000E+00
      21     1     1     2   502   511  7.793117197E+01 -2.663902801E+01 -1.605737205E+02  1.804628081E+02  0.000000000E+00  0.00000E+00  9.000E+00
#rwgt            1           1   2.5576912702646497E-002           8      232269           0
</event>
<event>
      5   9999 -3.79277E-02  9.78851E+01 -1.00000E+00  1.24247E-01
      21    -1     0     0   512   501  0.000000000E+00  0.000000000E+00  5.309680729E+02  5.309680729E+02  0.000000000E+00  0.00000E+00  9.000E+00
      21    -1     0     0   501   502  0.000000000E+00  0.000000000E+00 -1.703875564E+02  1.703875564E+02  0.000000000E+00  0.00000E+00  9.000E+00
      25     1     1     2     0     0  6.802927861E+01  2.236176392E+02  5.438700700E+01  2.705841419E+02  1.250000000E+02  0.00000E+00  9.000E+00
      25     1     1     2     0     0  5.265381507E+00 -1.587378365E+02  2.336326059E+02  3.089249415E+02  1.250000000E+02  0.00000E+00  9.000E+00
      21     1     1     2   512   502 -7.329466012E+01 -6.487980265E+01  7.256090371E+01  1.218465459E+02  9.536743164E-07  0.00000E+00  9.000E+00
#rwgt            1           1 -0.17989933794085727                8      232348           0
</event>
<event>
      5   9999  3.79277E-02  3.24223E+01 -1.00000E+00  1.50734E-01
      21    -1     0     0   502   511  0.000000000E+00  0.000000000E+00  2.433744285E+01  2.433744285E+01  0.000000000E+00  0.00000E+00  9.000E+00
      21    -1     0     0   501   502  0.000000000E+00  0.000000000E+00 -1.491836214E+03  1.491836214E+03  0.000000000E+00  0.00000E+00  9.000E+00
      25     1     1     2     0     0 -5.494894132E+01 -5.784926137E+01 -9.703801559E+02  9.816458476E+02  1.250000000E+02  0.00000E+00  9.000E+00
      25     1     1     2     0     0  5.112966341E+01  9.004587173E+01 -4.378750304E+02  4.669925521E+02  1.250000000E+02  0.00000E+00  9.000E+00
      21     1     1     2   501   511  3.819277914E+00 -3.219661035E+01 -5.924358457E+01  6.753525683E+01  6.743495762E-07  0.00000E+00  9.000E+00
#rwgt            1           1   4.0320935679703712E-002           8      232530           0
</event>
<event>
      5   9999  3.79277E-02  1.91753E+01 -1.00000E+00  1.67892E-01
      21    -1     0     0   502   501  0.000000000E+00  0.000000000E+00  2.861292274E+02  2.861292274E+02  0.000000000E+00  0.00000E+00  9.000E+00
      21    -1     0     0   501   512  0.000000000E+00  0.000000000E+00 -1.849280386E+02  1.849280386E+02  0.000000000E+00  0.00000E+00  9.000E+00
      25     1     1     2     0     0 -7.696251585E+00 -1.455291358E+02  1.731457621E+02  2.585390040E+02  1.250000000E+02  0.00000E+00  9.000E+00
      25     1     1     2     0     0  1.234291168E+01  1.269253571E+02 -7.387029110E+01  1.932465100E+02  1.250000000E+02  0.00000E+00  9.000E+00
      21     1     1     2   502   512 -4.646660090E+00  1.860377879E+01  1.925717748E+00  1.927175197E+01  2.555016905E-07  0.00000E+00  9.000E+00
#rwgt            1           1   4.0377772541598869E-002           8      232677           0
</event>
<event>
      5   9999  3.79277E-02  4.85009E+01 -1.00000E+00  1.39834E-01
      21    -1     0     0   502   511  0.000000000E+00  0.000000000E+00  1.770450172E+02  1.770450172E+02  0.000000000E+00  0.00000E+00  9.000E+00
      21    -1     0     0   501   502  0.000000000E+00  0.000000000E+00 -1.687284342E+02  1.687284342E+02  0.000000000E+00  0.00000E+00  9.000E+00
      25     1     1     2     0     0  2.143829354E+01  1.026874506E+01 -6.096889330E+01  1.410930668E+02  1.250000000E+02  0.00000E+00  9.000E+00
      25     1     1     2     0     0 -6.885993410E+01 -9.417702385E-02  6.214895572E+01  1.556572905E+02  1.250000000E+02  0.00000E+00  9.000E+00
      21     1     1     2   501   511  4.742164056E+01 -1.017456804E+01  7.136520609E+00  4.902309409E+01  4.214684851E-07  0.00000E+00  9.000E+00
#rwgt            1           1   8.1810461655934211E-002           8      232989           0
</event>
<event>
      5   9999 -3.79277E-02  5.20301E+01 -1.00000E+00  1.38096E-01
      21    -1     0     0   512   501  0.000000000E+00  0.000000000E+00  2.098789876E+02  2.098789876E+02  0.000000000E+00  0.00000E+00  9.000E+00
      21    -1     0     0   501   502  0.000000000E+00  0.000000000E+00 -4.376704801E+02  4.376704801E+02  0.000000000E+00  0.00000E+00  9.000E+00
      25     1     1     2     0     0 -2.361821169E+01 -1.546560632E+02 -1.960230750E+02  2.802255587E+02  1.250000000E+02  0.00000E+00  9.000E+00
      25     1     1     2     0     0  3.910666940E+01  2.043273624E+02 -1.154691428E+02  2.687696515E+02  1.250000000E+02  0.00000E+00  9.000E+00
      21     1     1     2   512   502 -1.548845770E+01 -4.967129922E+01  8.370072518E+01  9.855425756E+01  9.536743164E-07  0.00000E+00  9.000E+00
#rwgt            1           1  -2.6445965590204356E-002           8      233309           0
</event>
<event>
      5   9999 -3.79277E-02  5.97933E+01 -1.00000E+00  1.34784E-01
      21    -1     0     0   502   501  0.000000000E+00  0.000000000E+00  5.604272260E+02  5.604272260E+02  0.000000000E+00  0.00000E+00  9.000E+00
      21    -1     0     0   501   511  0.000000000E+00  0.000000000E+00 -1.361289225E+02  1.361289225E+02  0.000000000E+00  0.00000E+00  9.000E+00
      25     1     1     2     0     0  6.573966292E+01 -1.051630698E+02  3.566057647E+01  1.796598209E+02  1.250000000E+02  0.00000E+00  9.000E+00
      25     1     1     2     0     0 -1.244986865E+02  1.162364224E+02  4.033391523E+02  4.553221943E+02  1.250000000E+02  0.00000E+00  9.000E+00
      21     1     1     2   502   511  5.875902362E+01 -1.107335255E+01 -1.470142523E+01  6.157413334E+01  1.039242493E-06  0.00000E+00  9.000E+00
#rwgt            1           1  -6.7628695385280824E-002           8      233381           0
</event>
<event>
      5   9999  3.79277E-02  6.52981E+01 -1.00000E+00  1.32769E-01
      21    -1     0     0   502   501  0.000000000E+00  0.000000000E+00  1.121650488E+02  1.121650488E+02  0.000000000E+00  0.00000E+00  9.000E+00
      21    -1     0     0   512   502  0.000000000E+00  0.000000000E+00 -7.842897502E+02  7.842897502E+02  0.000000000E+00  0.00000E+00  9.000E+00
      25     1     1     2     0     0  2.039841543E+00  1.587379873E+02 -8.302917558E+01  2.184508035E+02  1.250000000E+02  0.00000E+00  9.000E+00
      25     1     1     2     0     0 -3.704012711E+01 -1.036124577E+02 -1.221787187E+02  2.065433410E+02  1.250000000E+02  0.00000E+00  9.000E+00
      21     1     1     2   512   501  3.500028557E+01 -5.512552955E+01 -4.669168071E+02  4.714606545E+02  0.000000000E+00  0.00000E+00  9.000E+00
#rwgt            1           1   3.4279044007319272E-002           8      233505           0
</event>
<event>
      5   9999  3.79277E-02  3.91278E+01 -1.00000E+00  1.45436E-01
      21    -1     0     0   502   501  0.000000000E+00  0.000000000E+00  4.984789319E+01  4.984789319E+01  0.000000000E+00  0.00000E+00  9.000E+00
      21    -1     0     0   501   511  0.000000000E+00  0.000000000E+00 -8.857708057E+02  8.857708057E+02  0.000000000E+00  0.00000E+00  9.000E+00
      25     1     1     2     0     0  6.431000341E+01  3.528812718E+01 -5.220786151E+02  5.418229497E+02  1.250000000E+02  0.00000E+00  9.000E+00
      25     1     1     2     0     0 -4.169782242E+01 -3.355761054E+00 -7.477626589E+01  1.515468887E+02  1.250000000E+02  0.00000E+00  9.000E+00
      21     1     1     2   502   511 -2.261218099E+01 -3.193236612E+01 -2.390680315E+02  2.422488606E+02  2.697398305E-06  0.00000E+00  9.000E+00
#rwgt            1           1   4.6725490456617398E-002           8      233549           0
</event>
<event>
      5   9999  3.79277E-02  3.01235E+01 -1.00000E+00  1.52916E-01
      21    -1     0     0   502   501  0.000000000E+00  0.000000000E+00  5.349207299E+02  5.349207299E+02  0.000000000E+00  0.00000E+00  9.000E+00
      21    -1     0     0   512   502  0.000000000E+00  0.000000000E+00 -1.041728616E+02  1.041728616E+02  0.000000000E+00  0.00000E+00  9.000E+00
      25     1     1     2     0     0  1.353364323E+02  6.456761520E+01  3.661137031E+02  4.149086290E+02  1.250000000E+02  0.00000E+00  9.000E+00
      25     1     1     2     0     0 -1.078170741E+02 -7.681945742E+01  4.295602162E+01  1.870720992E+02  1.250000000E+02  0.00000E+00  9.000E+00
      21     1     1     2   512   501 -2.751935824E+01  1.225184222E+01  2.167814357E+01  3.711286333E+01  5.840038640E-07  0.00000E+00  9.000E+00
#rwgt            1           1   2.8032565710088584E-002           8      233631           0
</event>
<event>
      5   9999  3.79277E-02  7.82157E+01 -1.00000E+00  1.28825E-01
      21    -1     0     0   511   501  0.000000000E+00  0.000000000E+00  5.146975330E+02  5.146975330E+02  0.000000000E+00  0.00000E+00  9.000E+00
      21    -1     0     0   501   502  0.000000000E+00  0.000000000E+00 -4.881351393E+02  4.881351393E+02  0.000000000E+00  0.00000E+00  9.000E+00
      25     1     1     2     0     0 -3.882889800E+01 -2.023649136E+02  3.002980821E+02  3.850495808E+02  1.250000000E+02  0.00000E+00  9.000E+00
      25     1     1     2     0     0  3.206403091E+01  2.802875477E+02 -3.776754296E+02  4.877016933E+02  1.250000000E+02  0.00000E+00  9.000E+00
      21     1     1     2   511   502  6.764867083E+00 -7.792263415E+01  1.039397413E+02  1.300813982E+02  1.348699152E-06  0.00000E+00  9.000E+00
#rwgt            1           1  0.21416162970856414                8      233804           0
</event>
<event>
      5   9999  3.79277E-02  7.13841E+01 -1.00000E+00  1.30791E-01
      21    -1     0     0   512   501  0.000000000E+00  0.000000000E+00  2.012178285E+02  2.012178285E+02  0.000000000E+00  0.00000E+00  9.000E+00
      21    -1     0     0   501   502  0.000000000E+00  0.000000000E+00 -1.080219528E+03  1.080219528E+03  0.000000000E+00  0.00000E+00  9.000E+00
      25     1     1     2     0     0 -1.084446507E+02  1.718639658E+02 -3.588334263E+02  4.309105392E+02  1.250000000E+02  0.00000E+00  9.000E+00
      25     1     1     2     0     0  5.278472956E+01 -2.165592262E+02 -6.521735132E+02  7.004565778E+02  1.250000000E+02  0.00000E+00  9.000E+00
      21     1     1     2   512   502  5.565992115E+01  4.469526041E+01  1.320052405E+02  1.500702390E+02  4.672030912E-06  0.00000E+00  9.000E+00
#rwgt            1           1   4.0065964163669338E-002           8      233933           0
</event>
<event>
      5   9999  3.79277E-02  6.78555E+01 -1.00000E+00  1.31909E-01
      21    -1     0     0   502   511  0.000000000E+00  0.000000000E+00  4.930575806E+02  4.930575806E+02  0.000000000E+00  0.00000E+00  9.000E+00
      21    -1     0     0   501   502  0.000000000E+00  0.000000000E+00 -3.735451589E+02  3.735451589E+02  0.000000000E+00  0.00000E+00  9.000E+00
      25     1     1     2     0     0 -3.252861728E+01  3.766113372E+02  1.330912343E+02  4.198005323E+02  1.250000000E+02  0.00000E+00  9.000E+00
      25     1     1     2     0     0  2.543095653E+01 -3.091280796E+02 -8.829447324E+01  3.458725446E+02  1.250000000E+02  0.00000E+00  9.000E+00
      21     1     1     2   501   511  7.097660753E+00 -6.748325764E+01  7.471566056E+01  1.009296626E+02  9.536743164E-07  0.00000E+00  9.000E+00
#rwgt            1           1   3.7572844972568221E-002           8      234004           0
</event>
<event>
      5   9999  3.79277E-02  1.10462E+01 -1.00000E+00  1.90891E-01
      21    -1     0     0   502   501  0.000000000E+00  0.000000000E+00  6.516922265E+02  6.516922265E+02  0.000000000E+00  0.00000E+00  9.000E+00
      21    -1     0     0   501   512  0.000000000E+00  0.000000000E+00 -9.550808043E+01  9.550808043E+01  0.000000000E+00  0.00000E+00  9.000E+00
      25     1     1     2     0     0 -1.094351114E+02  1.487073626E+02  3.052898131E+02  3.780433749E+02  1.250000000E+02  0.00000E+00  9.000E+00
      25     1     1     2     0     0  1.163189149E+02 -1.400684181E+02  2.689402014E+02  3.479986834E+02  1.250000000E+02  0.00000E+00  9.000E+00
      21     1     1     2   502   512 -6.883803506E+00 -8.638944507E+00 -1.804586852E+01  2.115824860E+01  6.307962682E-07  0.00000E+00  9.000E+00
#rwgt            1           1   3.1684374009099424E-002           8      234134           0
</event>
<event>
      5   9999  3.79277E-02  2.19218E+02 -1.00000E+00  1.10216E-01
      21    -1     0     0   511   501  0.000000000E+00  0.000000000E+00  3.123221628E+03  3.123221628E+03  0.000000000E+00  0.00000E+00  9.000E+00
      21    -1     0     0   501   502  0.000000000E+00  0.000000000E+00 -5.630408839E+01  5.630408839E+01  0.000000000E+00  0.00000E+00  9.000E+00
      25     1     1     2     0     0  1.573130465E+02  1.233397061E+02  8.380235529E+02  8.705564617E+02  1.250000000E+02  0.00000E+00  9.000E+00
      25     1     1     2     0     0  3.924528968E+01 -2.204023747E+02  4.607559412E+02  5.272935016E+02  1.250000000E+02  0.00000E+00  9.000E+00
      21     1     1     2   511   502 -1.965583362E+02  9.706266862E+01  1.768138045E+03  1.781675753E+03  2.157918644E-05  0.00000E+00  9.000E+00
#rwgt            1           1   2.4392051806361247E-002           8      234614           0
</event>
<event>
      5   9999  3.79277E-02  2.64586E+01 -1.00000E+00  1.56928E-01
      21    -1     0     0   502   501  0.000000000E+00  0.000000000E+00  8.452140964E+02  8.452140964E+02  0.000000000E+00  0.00000E+00  9.000E+00
      21    -1     0     0   512   502  0.000000000E+00  0.000000000E+00 -5.748507712E+01  5.748507712E+01  0.000000000E+00  0.00000E+00  9.000E+00
      25     1     1     2     0     0 -1.217766347E+02  6.804475639E+01  3.559791807E+02  4.022509350E+02  1.250000000E+02  0.00000E+00  9.000E+00
      25     1     1     2     0     0  9.944702442E+01 -5.385152709E+01  4.412373457E+02  4.723400183E+02  1.250000000E+02  0.00000E+00  9.000E+00
      21     1     1     2   512   501  2.232961026E+01 -1.419322931E+01 -9.487507116E+00  2.810822022E+01  6.848052319E-07  0.00000E+00  9.000E+00
#rwgt            1           1   4.6778673168083547E-002           8      234729           0
</event>
<event>
      5   9999  3.79277E-02  4.83917E+01 -1.00000E+00  1.39891E-01
      21    -1     0     0   502   501  0.000000000E+00  0.000000000E+00  7.874017755E+01  7.874017755E+01  0.000000000E+00  0.00000E+00  9.000E+00
      21    -1     0     0   511   502  0.000000000E+00  0.000000000E+00 -9.283454826E+02  9.283454826E+02  0.000000000E+00  0.00000E+00  9.000E+00
      25     1     1     2     0     0  1.579520504E+02 -4.105683505E+01 -2.475529303E+02  3.217793766E+02  1.250000000E+02  0.00000E+00  9.000E+00
      25     1     1     2     0     0 -1.853282448E+02  8.096047196E+01 -3.174086603E+02  3.965783831E+02  1.250000000E+02  0.00000E+00  9.000E+00
      21     1     1     2   511   501  2.737619442E+01 -3.990363691E+01 -2.846437145E+02  2.887279004E+02  3.814697266E-06  0.00000E+00  9.000E+00
#rwgt            1           1   3.8738389853107361E-002           8      234886           0
</event>
<event>
      5   9999  3.79277E-02  2.39891E+01 -1.00000E+00  1.60105E-01
      21    -1     0     0   512   501  0.000000000E+00  0.000000000E+00  4.957972958E+02  4.957972958E+02  0.000000000E+00  0.00000E+00  9.000E+00
      21    -1     0     0   501   502  0.000000000E+00  0.000000000E+00 -8.756349603E+01  8.756349603E+01  0.000000000E+00  0.00000E+00  9.000E+00
      25     1     1     2     0     0  9.163652719E+01  1.101949699E+02  1.006118635E+02  2.151463027E+02  1.250000000E+02  0.00000E+00  9.000E+00
      25     1     1     2     0     0 -6.779539224E+01 -1.075346741E+02  2.674752105E+02  3.214465890E+02  1.250000000E+02  0.00000E+00  9.000E+00
      21     1     1     2   512   502 -2.384113495E+01 -2.660295810E+00  4.014672581E+01  4.676790013E+01  4.768371582E-07  0.00000E+00  9.000E+00
#rwgt            1           1   3.5158667481768748E-002           8      234978           0
</event>
<event>
      5   9999  3.79277E-02  9.75833E+01 -1.00000E+00  1.24308E-01
      21    -1     0     0   502   501  0.000000000E+00  0.000000000E+00  1.444142339E+02  1.444142339E+02  0.000000000E+00  0.00000E+00  9.000E+00
      21    -1     0     0   501   511  0.000000000E+00  0.000000000E+00 -3.570549880E+02  3.570549880E+02  0.000000000E+00  0.00000E+00  9.000E+00
      25     1     1     2     0     0  3.735816731E+01 -2.693247241E+00  3.136336152E+01  1.342071037E+02  1.250000000E+02  0.00000E+00  9.000E+00
      25     1     1     2     0     0 -9.341021579E+01  8.257228402E+01 -1.660313585E+02  2.423531772E+02  1.250000000E+02  0.00000E+00  9.000E+00
      21     1     1     2   502   511  5.605204848E+01 -7.987903678E+01 -7.797275709E+01  1.249089409E+02  0.000000000E+00  0.00000E+00  9.000E+00
#rwgt            1           1   3.5768673284347539E-002           8      235171           0
</event>
<event>
      5   9999  3.79277E-02  2.33480E+01 -1.00000E+00  1.61007E-01
      21    -1     0     0   502   501  0.000000000E+00  0.000000000E+00  5.235312002E+01  5.235312002E+01  0.000000000E+00  0.00000E+00  9.000E+00
       2    -1     0     0   501     0  0.000000000E+00  0.000000000E+00 -7.078303332E+02  7.078303332E+02  0.000000000E+00  0.00000E+00  9.000E+00
      25     1     1     2     0     0 -1.243686418E+01 -7.080383449E+01 -1.395406475E+02  2.006600381E+02  1.250000000E+02  0.00000E+00  9.000E+00
      25     1     1     2     0     0  2.056133067E+01  4.891497387E+01 -1.943560198E+02  2.370964053E+02  1.250000000E+02  0.00000E+00  9.000E+00
       2     1     1     2   502     0 -8.124466491E+00  2.188886061E+01 -3.215805459E+02  3.224270098E+02  5.394796609E-06  0.00000E+00  9.000E+00
#rwgt            1           1  0.20345414668390152                8      235270           0
</event>
<event>
      5   9999  3.79277E-02  3.36823E+01 -1.00000E+00  1.49628E-01
      21    -1     0     0   502   511  0.000000000E+00  0.000000000E+00  3.731228863E+02  3.731228863E+02  0.000000000E+00  0.00000E+00  9.000E+00
      21    -1     0     0   501   502  0.000000000E+00  0.000000000E+00 -2.872943224E+02  2.872943224E+02  0.000000000E+00  0.00000E+00  9.000E+00
      25     1     1     2     0     0  1.135992772E+01  2.543228156E+02  1.328200149E+02  3.131697605E+02  1.250000000E+02  0.00000E+00  9.000E+00
      25     1     1     2     0     0  8.145853463E+00 -2.268633475E+02 -1.054480353E+02  2.797813817E+02  1.250000000E+02  0.00000E+00  9.000E+00
      21     1     1     2   501   511 -1.950578118E+01 -2.745946812E+01  5.845658427E+01  6.746606653E+01  9.536743164E-07  0.00000E+00  9.000E+00
#rwgt            1           1   4.5681098777939938E-002           8      235524           0
</event>
<event>
      5   9999  3.79277E-02  2.30893E+01 -1.00000E+00  1.61381E-01
      21    -1     0     0   512   501  0.000000000E+00  0.000000000E+00  3.065567446E+03  3.065567446E+03  0.000000000E+00  0.00000E+00  9.000E+00
      21    -1     0     0   501   502  0.000000000E+00  0.000000000E+00 -6.238153571E+01  6.238153571E+01  0.000000000E+00  0.00000E+00  9.000E+00
      25     1     1     2     0     0  8.930313776E+01  7.283622317E+01  9.003864511E+01  1.923853514E+02  1.250000000E+02  0.00000E+00  9.000E+00
      25     1     1     2     0     0 -7.455114276E+01 -5.507408951E+01  5.317000466E+02  5.540044836E+02  1.250000000E+02  0.00000E+00  9.000E+00
      21     1     1     2   512   502 -1.475199500E+01 -1.776213366E+01  2.381447219E+03  2.381559147E+03  0.000000000E+00  0.00000E+00  9.000E+00
#rwgt            1           1   4.1767245449632853E-002           8      235596           0
</event>
<event>
      5   9999 -3.79277E-02  1.32814E+02 -1.00000E+00  1.18527E-01
      21    -1     0     0   502   501  0.000000000E+00  0.000000000E+00  1.593525161E+02  1.593525161E+02  0.000000000E+00  0.00000E+00  9.000E+00
      21    -1     0     0   511   502  0.000000000E+00  0.000000000E+00 -7.268634536E+02  7.268634536E+02  0.000000000E+00  0.00000E+00  9.000E+00
      25     1     1     2     0     0 -1.686199268E+02  3.865460750E+01 -3.432737708E+02  4.042137307E+02  1.250000000E+02  0.00000E+00  9.000E+00
      25     1     1     2     0     0  1.817875099E+02  9.350462184E+01 -2.276575614E+01  2.406929428E+02  1.250000000E+02  0.00000E+00  9.000E+00
      21     1     1     2   511   501 -1.316758313E+01 -1.321592293E+02 -2.014714106E+02  2.413092962E+02  3.814697266E-06  0.00000E+00  9.000E+00
#rwgt            1           1  -4.9469812823240963E-002           8      235745           0
</event>
<event>
      5   9999  3.79277E-02  3.61006E+01 -1.00000E+00  1.47658E-01
      21    -1     0     0   502   501  0.000000000E+00  0.000000000E+00  5.445578591E+02  5.445578591E+02  0.000000000E+00  0.00000E+00  9.000E+00
      21    -1     0     0   512   502  0.000000000E+00  0.000000000E+00 -1.364795241E+02  1.364795241E+02  0.000000000E+00  0.00000E+00  9.000E+00
      25     1     1     2     0     0 -8.001792834E+01 -7.541426115E+01  1.855283994E+02  2.492708700E+02  1.250000000E+02  0.00000E+00  9.000E+00
      25     1     1     2     0     0  7.329832131E+01  1.108839581E+02  2.972592921E+02  3.487921771E+02  1.250000000E+02  0.00000E+00  9.000E+00
      21     1     1     2   512   501  6.719607031E+00 -3.546969699E+01 -7.470935641E+01  8.297433615E+01  1.651812370E-06  0.00000E+00  9.000E+00
#rwgt            1           1   3.0158996430220009E-002           8      235794           0
</event>
<event>
      5   9999  3.79277E-02  3.79576E+01 -1.00000E+00  1.46266E-01
      21    -1     0     0   502   501  0.000000000E+00  0.000000000E+00  9.317654128E+01  9.317654128E+01  0.000000000E+00  0.00000E+00  9.000E+00
      21    -1     0     0   501   511  0.000000000E+00  0.000000000E+00 -1.002109749E+03  1.002109749E+03  0.000000000E+00  0.00000E+00  9.000E+00
      25     1     1     2     0     0 -1.972898400E+02 -8.485585343E+01 -7.240941676E+02  7.655463150E+02  1.250000000E+02  0.00000E+00  9.000E+00
      25     1     1     2     0     0  1.605812561E+02  9.451311015E+01 -1.195951617E+02  2.542578818E+02  1.250000000E+02  0.00000E+00  9.000E+00
      21     1     1     2   502   511  3.670858397E+01 -9.657256713E+00 -6.524387807E+01  7.548209304E+01  1.651812370E-06  0.00000E+00  9.000E+00
#rwgt            1           1   3.3028975772090463E-002           8      235945           0
</event>
<event>
      5   9999  3.79277E-02  7.16811E+01 -1.00000E+00  1.30701E-01
      21    -1     0     0   502   512  0.000000000E+00  0.000000000E+00  4.350257929E+02  4.350257929E+02  0.000000000E+00  0.00000E+00  9.000E+00
      21    -1     0     0   501   502  0.000000000E+00  0.000000000E+00 -2.266357028E+02  2.266357028E+02  0.000000000E+00  0.00000E+00  9.000E+00
      25     1     1     2     0     0 -1.271127263E+02 -8.044991668E+01 -7.024762387E+01  2.078209877E+02  1.250000000E+02  0.00000E+00  9.000E+00
      25     1     1     2     0     0  1.962874320E+02  9.923935163E+01  1.205068699E+02  2.802215384E+02  1.250000000E+02  0.00000E+00  9.000E+00
      21     1     1     2   501   512 -6.917470574E+01 -1.878943495E+01  1.581308440E+02  1.736189696E+02  2.697398305E-06  0.00000E+00  9.000E+00
#rwgt            1           1   2.9841523909101313E-002           8      236105           0
</event>
<event>
      5   9999  3.79277E-02  1.47829E+01 -1.00000E+00  1.77982E-01
       1    -1     0     0   502     0  0.000000000E+00  0.000000000E+00  9.458653029E+02  9.458653029E+02  0.000000000E+00  0.00000E+00  9.000E+00
      21    -1     0     0   501   502  0.000000000E+00  0.000000000E+00 -4.031390167E+02  4.031390167E+02  0.000000000E+00  0.00000E+00  9.000E+00
      25     1     1     2     0     0 -4.811854512E+01  6.251810073E+00  2.070241018E+01  1.356763402E+02  1.250000000E+02  0.00000E+00  9.000E+00
      25     1     1     2     0     0  3.849831659E+01 -1.747619363E+01 -3.329918516E+02  3.581844650E+02  1.250000000E+02  0.00000E+00  9.000E+00
       1     1     1     2   501     0  9.620228526E+00  1.122438356E+01  8.550157277E+02  8.551435144E+02  0.000000000E+00  0.00000E+00  9.000E+00
#rwgt            1           1   4.4944271833984598E-002           8      236299           0
</event>
<event>
      5   9999  3.79277E-02  7.28721E+00 -1.00000E+00  2.13115E-01
      21    -1     0     0   502   501  0.000000000E+00  0.000000000E+00  6.610688678E+02  6.610688678E+02  0.000000000E+00  0.00000E+00  9.000E+00
      21    -1     0     0   511   502  0.000000000E+00  0.000000000E+00 -1.216437153E+02  1.216437153E+02  0.000000000E+00  0.00000E+00  9.000E+00
      25     1     1     2     0     0  6.797050689E+01  1.829212951E+01  5.797914241E+02  5.972752190E+02  1.250000000E+02  0.00000E+00  9.000E+00
      25     1     1     2     0     0 -6.068588591E+01 -1.809807234E+01  4.288712887E+00  1.401916903E+02  1.250000000E+02  0.00000E+00  9.000E+00
      21     1     1     2   511   501 -7.284620981E+00 -1.940571678E-01 -4.465498450E+01  4.524567385E+01  4.768371582E-07  0.00000E+00  9.000E+00
#rwgt            1           1   4.1399111264700882E-002           8      236573           0
</event>
<event>
      5   9999  3.79277E-02  4.75859E+01 -1.00000E+00  1.40313E-01
      21    -1     0     0   502   501  0.000000000E+00  0.000000000E+00  5.837829001E+02  5.837829001E+02  0.000000000E+00  0.00000E+00  9.000E+00
       4    -1     0     0   501     0  0.000000000E+00  0.000000000E+00 -5.504640228E+02  5.504640228E+02  0.000000000E+00  0.00000E+00  9.000E+00
      25     1     1     2     0     0 -2.083512801E+02  2.685532221E+01  1.079954738E+02  2.672442452E+02  1.250000000E+02  0.00000E+00  9.000E+00
      25     1     1     2     0     0  2.336118442E+02 -6.718303666E+01  3.475188788E+02  4.421339450E+02  1.250000000E+02  0.00000E+00  9.000E+00
       4     1     1     2   502     0 -2.526056413E+01  4.032771446E+01 -4.221954753E+02  4.248687327E+02  0.000000000E+00  0.00000E+00  9.000E+00
#rwgt            1           1   9.4383340949475647E-002           8      236935           0
</event>
<event>
      5   9999  3.79277E-02  3.58948E+01 -1.00000E+00  1.47818E-01
      21    -1     0     0   502   501  0.000000000E+00  0.000000000E+00  3.120852292E+02  3.120852292E+02  0.000000000E+00  0.00000E+00  9.000E+00
      21    -1     0     0   501   511  0.000000000E+00  0.000000000E+00 -1.862902032E+02  1.862902032E+02  0.000000000E+00  0.00000E+00  9.000E+00
      25     1     1     2     0     0  2.900124607E+01  3.566705457E+01  2.439575072E+02  2.779450960E+02  1.250000000E+02  0.00000E+00  9.000E+00
      25     1     1     2     0     0 -3.884296004E+01 -7.018631783E+01 -8.281802392E+01  1.700550494E+02  1.250000000E+02  0.00000E+00  9.000E+00
      21     1     1     2   502   511  9.841713974E+00  3.451926326E+01 -3.534445734E+01  5.037528694E+01  4.768371582E-07  0.00000E+00  9.000E+00
#rwgt            1           1   3.9570238792897186E-002           8      237125           0
</event>
<event>
      5   9999  3.79277E-02  2.56072E+01 -1.00000E+00  1.57974E-01
      21    -1     0     0   512   501  0.000000000E+00  0.000000000E+00  1.787533823E+01  1.787533823E+01  0.000000000E+00  0.00000E+00  9.000E+00
      21    -1     0     0   501   502  0.000000000E+00  0.000000000E+00 -2.254034294E+03  2.254034294E+03  0.000000000E+00  0.00000E+00  9.000E+00
      25     1     1     2     0     0 -4.138475883E+01  1.124774032E+02 -6.549644303E+02  6.774712315E+02  1.250000000E+02  0.00000E+00  9.000E+00
      25     1     1     2     0     0  1.653124520E+01 -1.186442074E+02 -1.478371156E+03  1.488474388E+03  1.250000000E+02  0.00000E+00  9.000E+00
      21     1     1     2   512   502  2.485351363E+01  6.166804215E+00 -1.028233698E+02  1.059640127E+02  1.907348633E-06  0.00000E+00  9.000E+00
#rwgt            1           1   8.4884134423169430E-002           8      237247           0
</event>
<event>
      5   9999  3.79277E-02  1.42368E+02 -1.00000E+00  1.17300E-01
      21    -1     0     0   502   511  0.000000000E+00  0.000000000E+00  4.576957240E+02  4.576957240E+02  0.000000000E+00  0.00000E+00  9.000E+00
      21    -1     0     0   501   502  0.000000000E+00  0.000000000E+00 -3.265723181E+02  3.265723181E+02  0.000000000E+00  0.00000E+00  9.000E+00
      25     1     1     2     0     0 -2.470515335E+02  1.168310285E+02  9.747012079E+01  3.159262158E+02  1.250000000E+02  0.00000E+00  9.000E+00
      25     1     1     2     0     0  2.245572149E+02  2.374863211E+01 -9.640031132E+01  2.755139930E+02  1.250000000E+02  0.00000E+00  9.000E+00
      21     1     1     2   501   511  2.249431854E+01 -1.405796606E+02  1.300535964E+02  1.928278332E+02  2.697398305E-06  0.00000E+00  9.000E+00
#rwgt            1           1   3.9124533734382981E-002           8      237414           0
</event>
<event>
      5   9999  3.79277E-02  6.66644E+00 -1.00000E+00  2.18595E-01
      21    -1     0     0   512   501  0.000000000E+00  0.000000000E+00  5.939861285E+01  5.939861285E+01  0.000000000E+00  0.00000E+00  9.000E+00
      21    -1     0     0   501   502  0.000000000E+00  0.000000000E+00 -5.351290065E+02  5.351290065E+02  0.000000000E+00  0.00000E+00  9.000E+00
      25     1     1     2     0     0  2.386259539E+01  1.158971137E+02 -2.791150780E+02  3.279204037E+02  1.250000000E+02  0.00000E+00  9.000E+00
      25     1     1     2     0     0 -1.769963367E+01 -1.184386432E+02 -1.919059951E+02  2.584451589E+02  1.250000000E+02  0.00000E+00  9.000E+00
      21     1     1     2   512   502 -6.162961717E+00  2.541529496E+00 -4.709320604E+00  8.162056717E+00  1.032382731E-07  0.00000E+00  9.000E+00
#rwgt            1           1   4.0350743527083330E-002           8      237543           0
</event>
<event>
      5   9999  3.79277E-02  6.52962E+01 -1.00000E+00  1.32769E-01
      21    -1     0     0   502   501  0.000000000E+00  0.000000000E+00  5.231796478E+02  5.231796478E+02  0.000000000E+00  0.00000E+00  9.000E+00
       2    -1     0     0   501     0  0.000000000E+00  0.000000000E+00 -2.882086462E+03  2.882086462E+03  0.000000000E+00  0.00000E+00  9.000E+00
      25     1     1     2     0     0  1.081133506E+02 -1.689108931E+02 -8.935127336E+01  2.526421114E+02  1.250000000E+02  0.00000E+00  9.000E+00
      25     1     1     2     0     0 -4.545312865E+01  1.872764316E+02  4.112346969E+02  4.710386658E+02  1.250000000E+02  0.00000E+00  9.000E+00
       2     1     1     2   502     0 -6.266022199E+01 -1.836553846E+01 -2.680790238E+03  2.681585332E+03  3.051757812E-05  0.00000E+00  9.000E+00
#rwgt            1           1   4.7218777934182214E-002           8      237824           0
</event>
<event>
      5   9999  3.79277E-02  3.99786E+01 -1.00000E+00  1.44855E-01
      21    -1     0     0   511   501  0.000000000E+00  0.000000000E+00  8.396854511E+02  8.396854511E+02  0.000000000E+00  0.00000E+00  9.000E+00
      21    -1     0     0   501   502  0.000000000E+00  0.000000000E+00 -5.641260224E+01  5.641260224E+01  0.000000000E+00  0.00000E+00  9.000E+00
      25     1     1     2     0     0  8.695535532E+01  7.483120358E+01  4.072894249E+02  4.412149346E+02  1.250000000E+02  0.00000E+00  9.000E+00
      25     1     1     2     0     0 -6.497270381E+01 -1.082236458E+02  1.728843679E+02  2.478866967E+02  1.250000000E+02  0.00000E+00  9.000E+00
      21     1     1     2   511   502 -2.198265150E+01  3.339244223E+01  2.030990560E+02  2.069964220E+02  0.000000000E+00  0.00000E+00  9.000E+00
#rwgt            1           1   5.7446200669507855E-002           8      237964           0
</event>
<event>
      5   9999  3.79277E-02  1.69974E+01 -1.00000E+00  1.72417E-01
      21    -1     0     0   502   512  0.000000000E+00  0.000000000E+00  1.533965753E+02  1.533965753E+02  0.000000000E+00  0.00000E+00  9.000E+00
      21    -1     0     0   501   502  0.000000000E+00  0.000000000E+00 -1.029958126E+03  1.029958126E+03  0.000000000E+00  0.00000E+00  9.000E+00
      25     1     1     2     0     0 -7.812520109E-01 -1.450230132E+02 -3.462866635E+02  3.956914682E+02  1.250000000E+02  0.00000E+00  9.000E+00
      25     1     1     2     0     0  1.766728863E+01  1.469659137E+02 -6.440837941E+02  6.725920358E+02  1.250000000E+02  0.00000E+00  9.000E+00
      21     1     1     2   501   512 -1.688603662E+01 -1.942900547E+00  1.138089070E+02  1.150711971E+02  3.015782986E-06  0.00000E+00  9.000E+00
#rwgt            1           1   3.6688336492409948E-002           8      238050           0
</event>
<event>
      5   9999  3.79277E-02  5.17932E+01 -1.00000E+00  1.38208E-01
      21    -1     0     0   511   501  0.000000000E+00  0.000000000E+00  5.605426598E+02  5.605426598E+02  0.000000000E+00  0.00000E+00  9.000E+00
      21    -1     0     0   501   502  0.000000000E+00  0.000000000E+00 -6.235185164E+01  6.235185164E+01  0.000000000E+00  0.00000E+00  9.000E+00
      25     1     1     2     0     0  3.827515013E+01  8.647266112E+01  1.427346323E+02  2.119921779E+02  1.250000000E+02  0.00000E+00  9.000E+00
      25     1     1     2     0     0  1.322725797E+01 -8.099195259E+01  2.211809715E+02  2.669844169E+02  1.250000000E+02  0.00000E+00  9.000E+00
      21     1     1     2   511   502 -5.150240810E+01 -5.480708529E+00  1.342752044E+02  1.439179166E+02  1.907348633E-06  0.00000E+00  9.000E+00
#rwgt            1           1   1.9020959017465672E-002           8      238271           0
</event>
<event>
      5   9999  3.79277E-02  1.04316E+02 -1.00000E+00  1.23008E-01
      21    -1     0     0   502   501  0.000000000E+00  0.000000000E+00  3.211815823E+02  3.211815823E+02  0.000000000E+00  0.00000E+00  9.000E+00
      21    -1     0     0   512   502  0.000000000E+00  0.000000000E+00 -1.318686933E+02  1.318686933E+02  0.000000000E+00  0.00000E+00  9.000E+00
      25     1     1     2     0     0  6.870265996E+01 -3.858134823E+01  2.653789145E+01  1.501260657E+02  1.250000000E+02  0.00000E+00  9.000E+00
      25     1     1     2     0     0  1.605207608E+01 -2.223403613E+01  1.510170955E+02  1.979474290E+02  1.250000000E+02  0.00000E+00  9.000E+00
      21     1     1     2   512   501 -8.475473604E+01  6.081538437E+01  1.175790197E+01  1.049767808E+02  2.396077066E-06  0.00000E+00  9.000E+00
#rwgt            1           1   1.7670753796195794E-002           8      238337           0
</event>
<event>
      5   9999  3.79277E-02  7.49856E+01 -1.00000E+00  1.29725E-01
       2    -1     0     0   502     0  0.000000000E+00  0.000000000E+00  4.728134563E+02  4.728134563E+02  0.000000000E+00  0.00000E+00  9.000E+00
      21    -1     0     0   501   502  0.000000000E+00  0.000000000E+00 -1.512978794E+02  1.512978794E+02  0.000000000E+00  0.00000E+00  9.000E+00
      25     1     1     2     0     0  1.117376618E+02 -9.828960553E+01  1.986957689E+02  2.779409293E+02  1.250000000E+02  0.00000E+00  9.000E+00
      25     1     1     2     0     0 -4.433017556E+01  1.311388796E+02 -1.723109576E+01  1.873085178E+02  1.250000000E+02  0.00000E+00  9.000E+00
       2     1     1     2   501     0 -6.740748621E+01 -3.284927403E+01  1.400509037E+02  1.588618885E+02  1.907348633E-06  0.00000E+00  9.000E+00
#rwgt            1           1  0.19485084615817302                8      238384           0
</event>
<event>
      5   9999  3.79277E-02  1.89895E+01 -1.00000E+00  1.68249E-01
      21    -1     0     0   502   511  0.000000000E+00  0.000000000E+00  1.430648576E+02  1.430648576E+02  0.000000000E+00  0.00000E+00  9.000E+00
      21    -1     0     0   501   502  0.000000000E+00  0.000000000E+00 -2.813462050E+02  2.813462050E+02  0.000000000E+00  0.00000E+00  9.000E+00
      25     1     1     2     0     0 -2.679945592E+01 -1.057977634E+02 -1.706351660E+02  2.380183553E+02  1.250000000E+02  0.00000E+00  9.000E+00
      25     1     1     2     0     0  4.046407944E+01  9.261149582E+01  1.638021743E+01  1.615782857E+02  1.250000000E+02  0.00000E+00  9.000E+00
      21     1     1     2   501   511 -1.366462352E+01  1.318626757E+01  1.597360111E+01  2.481442163E+01  2.920019320E-07  0.00000E+00  9.000E+00
#rwgt            1           1   3.7231261546272182E-002           8      238450           0
</event>
<event>
      5   9999  3.79277E-02  1.46861E+02 -1.00000E+00  1.16759E-01
      21    -1     0     0   502   501  0.000000000E+00  0.000000000E+00  6.125662224E+02  6.125662224E+02  0.000000000E+00  0.00000E+00  9.000E+00
       2    -1     0     0   501     0  0.000000000E+00  0.000000000E+00 -3.927141781E+02  3.927141781E+02  0.000000000E+00  0.00000E+00  9.000E+00
      25     1     1     2     0     0 -3.080499225E+01 -2.171856267E+02  1.612471268E+02  2.995733297E+02  1.250000000E+02  0.00000E+00  9.000E+00
      25     1     1     2     0     0 -1.031014939E+01  7.619782632E+01  3.499300880E+02  3.794581326E+02  1.250000000E+02  0.00000E+00  9.000E+00
       2     1     1     2   502     0  4.111514164E+01  1.409878003E+02 -2.913251705E+02  3.262489382E+02  5.394796609E-06  0.00000E+00  9.000E+00
#rwgt            1           1   2.3371155108133208E-002           8      238623           0
</event>
<event>
      5   9999  3.79277E-02  5.05783E+01 -1.00000E+00  1.38791E-01
      21    -1     0     0   502   501  0.000000000E+00  0.000000000E+00  5.609245571E+02  5.609245571E+02  0.000000000E+00  0.00000E+00  9.000E+00
      21    -1     0     0   511   502  0.000000000E+00  0.000000000E+00 -1.809356903E+02  1.809356903E+02  0.000000000E+00  0.00000E+00  9.000E+00
      25     1     1     2     0     0  1.231541409E+02 -1.543686626E+02  3.748357503E+02  4.417278191E+02  1.250000000E+02  0.00000E+00  9.000E+00
      25     1     1     2     0     0 -1.603740146E+02  1.201218280E+02  3.887448815E+01  2.393434853E+02  1.250000000E+02  0.00000E+00  9.000E+00
      21     1     1     2   511   501  3.721987375E+01  3.424683457E+01 -3.372137176E+01  6.078894302E+01  1.261592536E-06  0.00000E+00  9.000E+00
#rwgt            1           1   3.6864599863878390E-002           8      238670           0
</event>
<event>
      5   9999  3.79277E-02  5.63509E+01 -1.00000E+00  1.36176E-01
      21    -1     0     0   502   501  0.000000000E+00  0.000000000E+00  7.711523803E+02  7.711523803E+02  0.000000000E+00  0.00000E+00  9.000E+00
      21    -1     0     0   512   502  0.000000000E+00  0.000000000E+00 -9.002307246E+01  9.002307246E+01  0.000000000E+00  0.00000E+00  9.000E+00
      25     1     1     2     0     0  1.398831817E+02  1.942094878E+01  1.525927697E+02  2.425984978E+02  1.250000000E+02  0.00000E+00  9.000E+00
      25     1     1     2     0     0 -8.353395902E+01 -1.898718818E+01  5.401824597E+02  5.610352265E+02  1.250000000E+02  0.00000E+00  9.000E+00
      21     1     1     2   512   501 -5.634922263E+01 -4.337606049E-01 -1.164592146E+01  5.754172856E+01  1.238859277E-06  0.00000E+00  9.000E+00
#rwgt            1           1   2.3663097310950041E-002           8      238835           0
</event>
<event>
      5   9999 -3.79277E-02  3.67664E+01 -1.00000E+00  1.47148E-01
      21    -1     0     0   511   501  0.000000000E+00  0.000000000E+00  3.610316556E+02  3.610316556E+02  0.000000000E+00  0.00000E+00  9.000E+00
      21    -1     0     0   501   502  0.000000000E+00  0.000000000E+00 -1.504954527E+02  1.504954527E+02  0.000000000E+00  0.00000E+00  9.000E+00
      25     1     1     2     0     0  7.176838824E+01 -1.090692427E+02  6.586207544E+01  1.923788300E+02  1.250000000E+02  0.00000E+00  9.000E+00
      25     1     1     2     0     0 -6.550710999E+01  7.283992475E+01 -1.099719038E+01  1.591941403E+02  1.250000000E+02  0.00000E+00  9.000E+00
      21     1     1     2   511   502 -6.261278247E+00  3.622931796E+01  1.556713179E+02  1.599541381E+02  0.000000000E+00  0.00000E+00  9.000E+00
#rwgt            1           1 -0.12671897902480153                8      238952           0
</event>
<event>
      5   9999  3.79277E-02  1.04417E+01 -1.00000E+00  1.93612E-01
      21    -1     0     0   502   501  0.000000000E+00  0.000000000E+00  2.647303534E+02  2.647303534E+02  0.000000000E+00  0.00000E+00  9.000E+00
      21    -1     0     0   501   512  0.000000000E+00  0.000000000E+00 -2.120782647E+02  2.120782647E+02  0.000000000E+00  0.00000E+00  9.000E+00
      25     1     1     2     0     0 -1.505065433E+02  1.033363089E+02 -2.141732896E+01  2.222933069E+02  1.250000000E+02  0.00000E+00  9.000E+00
      25     1     1     2     0     0  1.536125336E+02 -1.133053878E+02  8.084742042E+01  2.420665751E+02  1.250000000E+02  0.00000E+00  9.000E+00
      21     1     1     2   502   512 -3.105990323E+00  9.969078937E+00 -6.778002766E+00  1.244873617E+01  2.665600750E-07  0.00000E+00  9.000E+00
#rwgt            1           1   3.2800724398104400E-002           8      239102           0
</event>
<event>
      5   9999  3.79277E-02  2.56000E+01 -1.00000E+00  1.57983E-01
      21    -1     0     0   502   511  0.000000000E+00  0.000000000E+00  2.832071015E+02  2.832071015E+02  0.000000000E+00  0.00000E+00  9.000E+00
      21    -1     0     0   501   502  0.000000000E+00  0.000000000E+00 -3.173845061E+02  3.173845061E+02  0.000000000E+00  0.00000E+00  9.000E+00
      25     1     1     2     0     0 -1.489851361E+02  2.037013023E+02 -2.396419812E+01  2.826483224E+02  1.250000000E+02  0.00000E+00  9.000E+00
      25     1     1     2     0     0  1.237880449E+02 -2.082250654E+02 -4.340545607E+01  2.760257081E+02  1.250000000E+02  0.00000E+00  9.000E+00
      21     1     1     2   501   511  2.519709118E+01  4.523763061E+00  3.319224959E+01  4.191757709E+01  6.743495762E-07  0.00000E+00  9.000E+00
#rwgt            1           1   3.5952074730731684E-002           8      239559           0
</event>
<event>
      5   9999  3.79277E-02  4.12923E+01 -1.00000E+00  1.43989E-01
      21    -1     0     0   512   501  0.000000000E+00  0.000000000E+00  1.429747505E+03  1.429747505E+03  0.000000000E+00  0.00000E+00  9.000E+00
      21    -1     0     0   501   502  0.000000000E+00  0.000000000E+00 -4.359183053E+01  4.359183053E+01  0.000000000E+00  0.00000E+00  9.000E+00
      25     1     1     2     0     0 -1.145979816E+02  1.172951606E+02  6.891733095E+02  7.193578404E+02  1.250000000E+02  0.00000E+00  9.000E+00
      25     1     1     2     0     0  8.000616270E+01 -1.398442525E+02  3.540757509E+02  4.085976486E+02  1.250000000E+02  0.00000E+00  9.000E+00
      21     1     1     2   512   502  3.459181895E+01  2.254909193E+01  3.429066142E+02  3.453838467E+02  3.814697266E-06  0.00000E+00  9.000E+00
#rwgt            2          11   9.5155015329332726E-004           8      239714           0
</event>
<event>
      5   9999 -3.94886E-02  5.88779E+01 -1.00000E+00  1.35143E-01
      21    -1     0     0   502   511  0.000000000E+00  0.000000000E+00  2.248771020E+03  2.248771020E+03  0.000000000E+00  0.00000E+00  9.000E+00
      21    -1     0     0   501   502  0.000000000E+00  0.000000000E+00 -4.576264058E+01  4.576264058E+01  0.000000000E+00  0.00000E+00  9.000E+00
      25     1     1     2     0     0 -9.910747179E+01  2.074095847E+02  8.582544313E+02  8.972550895E+02  1.250000000E+02  0.00000E+00  9.000E+00
      25     1     1     2     0     0  7.948164701E+01 -1.518989477E+02  4.190156538E+02  4.696698209E+02  1.250000000E+02  0.00000E+00  9.000E+00
      21     1     1     2   501   511  1.962582478E+01 -5.551063702E+01  9.257382947E+02  9.276087506E+02  1.868812365E-05  0.00000E+00  9.000E+00
#rwgt            1           1 -0.35516953412818136                8      239734           0
</event>
<event>
      5   9999  3.79277E-02  5.28578E+01 -1.00000E+00  1.37712E-01
      21    -1     0     0   502   501  0.000000000E+00  0.000000000E+00  8.503681610E+01  8.503681610E+01  0.000000000E+00  0.00000E+00  9.000E+00
      21    -1     0     0   512   502  0.000000000E+00  0.000000000E+00 -4.133815844E+02  4.133815844E+02  0.000000000E+00  0.00000E+00  9.000E+00
      25     1     1     2     0     0  5.984025229E-02 -2.315799721E+01 -2.727220206E+01  1.300194963E+02  1.250000000E+02  0.00000E+00  9.000E+00
      25     1     1     2     0     0 -2.779071347E+01  6.815744058E+01 -1.514484290E+02  2.097126299E+02  1.250000000E+02  0.00000E+00  9.000E+00
      21     1     1     2   512   501  2.773087322E+01 -4.499944337E+01 -1.496241372E+02  1.586862743E+02  0.000000000E+00  0.00000E+00  9.000E+00
#rwgt            1           1   2.1616583439462270E-002           8      239895           0
</event>
<event>
      5   9999  3.79277E-02  4.17657E+01 -1.00000E+00  1.43686E-01
      21    -1     0     0   502   501  0.000000000E+00  0.000000000E+00  9.349160715E+02  9.349160715E+02  0.000000000E+00  0.00000E+00  9.000E+00
       2    -1     0     0   501     0  0.000000000E+00  0.000000000E+00 -1.047939336E+03  1.047939336E+03  0.000000000E+00  0.00000E+00  9.000E+00
      25     1     1     2     0     0  1.113714005E+02 -8.178833829E+01  4.690807851E+02  5.047323093E+02  1.250000000E+02  0.00000E+00  9.000E+00
      25     1     1     2     0     0 -1.381483664E+02  4.973570986E+01  4.268080952E+02  4.683468395E+02  1.250000000E+02  0.00000E+00  9.000E+00
       2     1     1     2   502     0  2.677696591E+01  3.205262844E+01 -1.008912144E+03  1.009776258E+03  0.000000000E+00  0.00000E+00  9.000E+00
#rwgt            1           1   4.9381978782643228E-002           8      239980           0
</event>
<event>
      5   9999  3.79277E-02  5.57420E+01 -1.00000E+00  1.36434E-01
      21    -1     0     0   502   501  0.000000000E+00  0.000000000E+00  1.884679131E+02  1.884679131E+02  0.000000000E+00  0.00000E+00  9.000E+00
       2    -1     0     0   501     0  0.000000000E+00  0.000000000E+00 -7.697855175E+02  7.697855175E+02  0.000000000E+00  0.00000E+00  9.000E+00
      25     1     1     2     0     0 -9.745329638E+01 -1.030895367E+01  8.047356801E+01  1.780573353E+02  1.250000000E+02  0.00000E+00  9.000E+00
      25     1     1     2     0     0  4.385108717E+01  2.560507037E+01 -2.047884907E+01  1.364658226E+02  1.250000000E+02  0.00000E+00  9.000E+00
       2     1     1     2   502     0  5.360220921E+01 -1.529611670E+01 -6.413123233E+02  6.437302728E+02  7.629394531E-06  0.00000E+00  9.000E+00
#rwgt            1           1  0.10484555730843771                8      240256           0
</event>
<event>
      5   9999 -3.79277E-02  7.56114E+01 -1.00000E+00  1.29547E-01
      21    -1     0     0   502   511  0.000000000E+00  0.000000000E+00  4.418094570E+02  4.418094570E+02  0.000000000E+00  0.00000E+00  9.000E+00
      21    -1     0     0   501   502  0.000000000E+00  0.000000000E+00 -3.048582163E+02  3.048582163E+02  0.000000000E+00  0.00000E+00  9.000E+00
      25     1     1     2     0     0  9.870931008E+01  8.659655507E+01  3.156340870E+02  3.639950111E+02  1.250000000E+02  0.00000E+00  9.000E+00
      25     1     1     2     0     0 -1.661115770E+02 -5.233264338E+01 -2.106789487E+02  3.005700933E+02  1.250000000E+02  0.00000E+00  9.000E+00
      21     1     1     2   501   511  6.740226693E+01 -3.426391169E+01  3.199610243E+01  8.210256879E+01  1.066240300E-06  0.00000E+00  9.000E+00
#rwgt            1           1 -0.15190978434963653                8      240356           0
</event>
<event>
      5   9999  3.79277E-02  1.16736E+02 -1.00000E+00  1.20879E-01
      21    -1     0     0   502   512  0.000000000E+00  0.000000000E+00  6.253801685E+02  6.253801685E+02  0.000000000E+00  0.00000E+00  9.000E+00
      21    -1     0     0   501   502  0.000000000E+00  0.000000000E+00 -2.210868921E+02  2.210868921E+02  0.000000000E+00  0.00000E+00  9.000E+00
      25     1     1     2     0     0  2.585249591E+02  4.459861456E+01  6.047172007E+01  2.968265821E+02  1.250000000E+02  0.00000E+00  9.000E+00
      25     1     1     2     0     0 -1.999022789E+02 -1.455480211E+02  1.300614600E+02  3.060819023E+02  1.250000000E+02  0.00000E+00  9.000E+00
      21     1     1     2   501   512 -5.862268023E+01  1.009494065E+02  2.137600963E+02  2.435585763E+02  2.697398305E-06  0.00000E+00  9.000E+00
#rwgt            1           1   3.4426189585091908E-002           8      240499           0
</event>
<event>
      5   9999  3.79277E-02  5.10559E+01 -1.00000E+00  1.38560E-01
      21    -1     0     0   502   511  0.000000000E+00  0.000000000E+00  2.916005236E+02  2.916005236E+02  0.000000000E+00  0.00000E+00  9.000E+00
      21    -1     0     0   501   502  0.000000000E+00  0.000000000E+00 -1.965486203E+02  1.965486203E+02  0.000000000E+00  0.00000E+00  9.000E+00
      25     1     1     2     0     0 -3.955618134E+01 -8.678067096E+01  9.693609072E+01  1.847083702E+02  1.250000000E+02  0.00000E+00  9.000E+00
      25     1     1     2     0     0  2.327433130E+01  1.351708168E+02 -8.639908252E+01  2.047013573E+02  1.250000000E+02  0.00000E+00  9.000E+00
      21     1     1     2   501   511  1.628185004E+01 -4.839014587E+01  8.451489515E+01  9.873941645E+01  1.907348633E-06  0.00000E+00  9.000E+00
#rwgt            1           1   4.4026827741044335E-002           8      240574           0
</event>
<event>
      5   9999  3.79277E-02  1.35534E+02 -1.00000E+00  1.18166E-01
      21    -1     0     0   502   512  0.000000000E+00  0.000000000E+00  2.899859433E+03  2.899859433E+03  0.000000000E+00  0.00000E+00  9.000E+00
      21    -1     0     0   501   502  0.000000000E+00  0.000000000E+00 -4.344821991E+02  4.344821991E+02  0.000000000E+00  0.00000E+00  9.000E+00
      25     1     1     2     0     0  8.405666782E+00  1.170170202E+02 -2.758953850E+02  3.248182595E+02  1.250000000E+02  0.00000E+00  9.000E+00
      25     1     1     2     0     0  1.206900974E+02 -7.574087562E+01 -6.469615243E+01  2.002832294E+02  1.250000000E+02  0.00000E+00  9.000E+00
      21     1     1     2   501   512 -1.290957642E+02 -4.127614458E+01  2.805968771E+03  2.809240143E+03  0.000000000E+00  0.00000E+00  9.000E+00
#rwgt            1           1   4.8026220770190843E-002           8      240634           0
</event>
<event>
      5   9999  3.79277E-02  1.01259E+02 -1.00000E+00  1.23584E-01
      21    -1     0     0   511   501  0.000000000E+00  0.000000000E+00  1.523414254E+02  1.523414254E+02  0.000000000E+00  0.00000E+00  9.000E+00
      21    -1     0     0   501   502  0.000000000E+00  0.000000000E+00 -3.434812947E+02  3.434812947E+02  0.000000000E+00  0.00000E+00  9.000E+00
      25     1     1     2     0     0 -1.397487710E+01  4.593915064E+01 -1.494870643E+02  2.006915174E+02  1.250000000E+02  0.00000E+00  9.000E+00
      25     1     1     2     0     0 -8.448855889E+01 -6.956706666E+01 -8.304380579E+01  1.857395139E+02  1.250000000E+02  0.00000E+00  9.000E+00
      21     1     1     2   511   502  9.846343599E+01  2.362791601E+01  4.139100075E+01  1.093916888E+02  1.348699152E-06  0.00000E+00  9.000E+00
#rwgt            1           1   7.3769414888462323E-002           8      240670           0
</event>
<event>
      5   9999  3.79277E-02  1.03549E+02 -1.00000E+00  1.23151E-01
      21    -1     0     0   502   512  0.000000000E+00  0.000000000E+00  1.059243784E+03  1.059243784E+03  0.000000000E+00  0.00000E+00  9.000E+00
      21    -1     0     0   501   502  0.000000000E+00  0.000000000E+00 -2.083108712E+02  2.083108712E+02  0.000000000E+00  0.00000E+00  9.000E+00
      25     1     1     2     0     0  2.347927750E+02 -6.122787523E+01  2.158852797E+02  3.480056808E+02  1.250000000E+02  0.00000E+00  9.000E+00
      25     1     1     2     0     0 -3.369533917E+02  7.812485012E+01  1.092737717E+02  3.836754325E+02  1.250000000E+02  0.00000E+00  9.000E+00
      21     1     1     2   501   512  1.021606167E+02 -1.689697489E+01  5.257738620E+02  5.358735423E+02  0.000000000E+00  0.00000E+00  9.000E+00
#rwgt            2          11   7.7042782680026472E-004           8      240797           0
</event>
<event>
      5   9999 -3.79277E-02  7.25352E+01 -1.00000E+00  1.30443E-01
       2    -1     0     0   502     0  0.000000000E+00  0.000000000E+00  2.201696254E+03  2.201696254E+03  0.000000000E+00  0.00000E+00  9.000E+00
      21    -1     0     0   501   502  0.000000000E+00  0.000000000E+00 -3.294415018E+02  3.294415018E+02  0.000000000E+00  0.00000E+00  9.000E+00
      25     1     1     2     0     0 -1.089622030E+02  9.703975746E+01 -7.573993107E+01  2.065212177E+02  1.250000000E+02  0.00000E+00  9.000E+00
      25     1     1     2     0     0  1.793320126E+02 -7.944883528E+01 -1.156110445E+02  2.597364083E+02  1.250000000E+02  0.00000E+00  9.000E+00
       2     1     1     2   501     0 -7.036980966E+01 -1.759092218E+01  2.063605728E+03  2.064880130E+03  3.051757812E-05  0.00000E+00  9.000E+00
#rwgt            1           1 -0.12255966503367609                8      240877           0
</event>
<event>
      5   9999  3.79277E-02  7.20680E+01 -1.00000E+00  1.30584E-01
      21    -1     0     0   502   501  0.000000000E+00  0.000000000E+00  3.104746470E+02  3.104746470E+02  0.000000000E+00  0.00000E+00  9.000E+00
       1    -1     0     0   501     0  0.000000000E+00  0.000000000E+00 -9.803334657E+02  9.803334657E+02  0.000000000E+00  0.00000E+00  9.000E+00
      25     1     1     2     0     0 -4.822679993E+01 -4.507851208E+01  2.333746013E+02  2.728490444E+02  1.250000000E+02  0.00000E+00  9.000E+00
      25     1     1     2     0     0  5.596840763E+00  1.031859866E+02 -6.197899242E+01  1.736233508E+02  1.250000000E+02  0.00000E+00  9.000E+00
       1     1     1     2   502     0  4.262995917E+01 -5.810747452E+01 -8.412544276E+02  8.443357176E+02  1.078959322E-05  0.00000E+00  9.000E+00
#rwgt            1           1   2.7540567291928695E-002           8      240954           0
</event>
<event>
      5   9999  3.79277E-02  4.00955E+01 -1.00000E+00  1.44776E-01
      21    -1     0     0   502   501  0.000000000E+00  0.000000000E+00  8.509852311E+02  8.509852311E+02  0.000000000E+00  0.00000E+00  9.000E+00
      21    -1     0     0   501   511  0.000000000E+00  0.000000000E+00 -5.886746531E+02  5.886746531E+02  0.000000000E+00  0.00000E+00  9.000E+00
      25     1     1     2     0     0 -2.801059291E+02  4.938709175E+01  5.973411746E+02  6.733052021E+02  1.250000000E+02  0.00000E+00  9.000E+00
      25     1     1     2     0     0  3.057184405E+02 -1.853830166E+01  8.729512233E+01  3.421299049E+02  1.250000000E+02  0.00000E+00  9.000E+00
      21     1     1     2   502   511 -2.561251133E+01 -3.084879008E+01 -4.223257189E+02  4.242247770E+02  0.000000000E+00  0.00000E+00  9.000E+00
#rwgt            1           1  0.43105280330477341                8      241020           0
</event>
<event>
      5   9999  3.79277E-02  4.28277E+01 -1.00000E+00  1.43024E-01
      21    -1     0     0   502   501  0.000000000E+00  0.000000000E+00  5.531486909E+02  5.531486909E+02  0.000000000E+00  0.00000E+00  9.000E+00
      21    -1     0     0   512   502  0.000000000E+00  0.000000000E+00 -8.799276700E+01  8.799276700E+01  0.000000000E+00  0.00000E+00  9.000E+00
      25     1     1     2     0     0  6.626443589E+01  6.007490720E+01  8.066870798E+01  1.735868958E+02  1.250000000E+02  0.00000E+00  9.000E+00
      25     1     1     2     0     0 -9.860630427E+01 -3.199978213E+01  3.917863580E+02  4.241093486E+02  1.250000000E+02  0.00000E+00  9.000E+00
      21     1     1     2   512   501  3.234186838E+01 -2.807512508E+01 -7.299142069E+00  4.344521347E+01  4.214684851E-07  0.00000E+00  9.000E+00
#rwgt            1           1   2.4731666691058196E-002           8      241194           0
</event>
<event>
      5   9999  3.79277E-02  8.67206E+00 -1.00000E+00  2.03193E-01
      21    -1     0     0   502   501  0.000000000E+00  0.000000000E+00  8.405154047E+01  8.405154047E+01  0.000000000E+00  0.00000E+00  9.000E+00
      21    -1     0     0   511   502  0.000000000E+00  0.000000000E+00 -4.867925446E+02  4.867925446E+02  0.000000000E+00  0.00000E+00  9.000E+00
      25     1     1     2     0     0  5.241908416E+01 -2.753153141E+01  3.247690145E+00  1.383520621E+02  1.250000000E+02  0.00000E+00  9.000E+00
      25     1     1     2     0     0 -4.477931924E+01  3.163501986E+01 -3.471931761E+02  3.730604019E+02  1.250000000E+02  0.00000E+00  9.000E+00
      21     1     1     2   511   501 -7.639764918E+00 -4.103488448E+00 -5.879551810E+01  5.943162100E+01  0.000000000E+00  0.00000E+00  9.000E+00
#rwgt            1           1   7.0636580393533321E-002           8      241303           0
</event>
<event>
      5   9999  3.79277E-02  1.82749E+01 -1.00000E+00  1.69667E-01
      21    -1     0     0   502   512  0.000000000E+00  0.000000000E+00  4.463275916E+02  4.463275916E+02  0.000000000E+00  0.00000E+00  9.000E+00
      21    -1     0     0   501   502  0.000000000E+00  0.000000000E+00 -1.952714387E+02  1.952714387E+02  0.000000000E+00  0.00000E+00  9.000E+00
      25     1     1     2     0     0  6.153234182E+01  2.516609715E+02  1.199988712E+02  3.116796477E+02  1.250000000E+02  0.00000E+00  9.000E+00
      25     1     1     2     0     0 -4.325759402E+01 -2.517434786E+02  1.208959130E+02  3.090094177E+02  1.250000000E+02  0.00000E+00  9.000E+00
      21     1     1     2   501   512 -1.827474780E+01  8.250712022E-02  1.016136868E+01  2.090996480E+01  3.153981341E-07  0.00000E+00  9.000E+00
#rwgt            1           1   3.5830373020248649E-002           8      241564           0
</event>
<event>
      5   9999  3.83584E-02  8.22270E+01 -1.00000E+00  1.27775E-01
      21    -1     0     0   502   501  0.000000000E+00  0.000000000E+00  4.263069327E+01  4.263069327E+01  0.000000000E+00  0.00000E+00  9.000E+00
      21    -1     0     0   501   511  0.000000000E+00  0.000000000E+00 -1.985329013E+03  1.985329013E+03  0.000000000E+00  0.00000E+00  9.000E+00
      25     1     1     2     0     0 -1.637151818E+02 -7.007762082E+01 -1.188745221E+03  1.208492339E+03  1.250000000E+02  0.00000E+00  9.000E+00
      25     1     1     2     0     0  1.918694735E+02 -7.179234291E+00 -4.552033511E+02  5.096082094E+02  1.250000000E+02  0.00000E+00  9.000E+00
      21     1     1     2   502   511 -2.815429166E+01  7.725685511E+01 -2.987497480E+02  3.098591579E+02  5.394796609E-06  0.00000E+00  9.000E+00
#rwgt            1           1  0.29905917996400005                8      241773           0
</event>
<event>
      5   9999  3.79277E-02  1.71228E+01 -1.00000E+00  1.72134E-01
      21    -1     0     0   502   501  0.000000000E+00  0.000000000E+00  8.163852409E+01  8.163852409E+01  0.000000000E+00  0.00000E+00  9.000E+00
      21    -1     0     0   501   512  0.000000000E+00  0.000000000E+00 -3.610057694E+02  3.610057694E+02  0.000000000E+00  0.00000E+00  9.000E+00
      25     1     1     2     0     0 -3.606524671E+01 -4.875811405E+01 -5.153103580E+01  1.481840186E+02  1.250000000E+02  0.00000E+00  9.000E+00
      25     1     1     2     0     0  3.292432708E+01  6.559033759E+01 -1.286563784E+02  1.938132281E+02  1.250000000E+02  0.00000E+00  9.000E+00
      21     1     1     2   502   512  3.140919636E+00 -1.683222354E+01 -9.917983115E+01  1.006470468E+02  1.348699152E-06  0.00000E+00  9.000E+00
#rwgt            1           1   6.6491505783554103E-002           8      241872           0
</event>
<event>
      5   9999 -3.79277E-02  1.67081E+01 -1.00000E+00  1.73082E-01
      21    -1     0     0   502   511  0.000000000E+00  0.000000000E+00  1.559396846E+02  1.559396846E+02  0.000000000E+00  0.00000E+00  9.000E+00
      21    -1     0     0   501   502  0.000000000E+00  0.000000000E+00 -7.197794967E+02  7.197794967E+02  0.000000000E+00  0.00000E+00  9.000E+00
      25     1     1     2     0     0 -2.008953519E+02  7.498455422E+01 -1.474775960E+02  2.887148543E+02  1.250000000E+02  0.00000E+00  9.000E+00
      25     1     1     2     0     0  2.174199469E+02 -7.251515683E+01 -4.662664136E+02  5.343774413E+02  1.250000000E+02  0.00000E+00  9.000E+00
      21     1     1     2   501   511 -1.652459500E+01 -2.469397391E+00  4.990419755E+01  5.262688568E+01  6.743495762E-07  0.00000E+00  9.000E+00
#rwgt            1           1 -0.17665601609274428                8      242022           0
</event>
<event>
      5   9999  3.79277E-02  7.38796E+01 -1.00000E+00  1.30045E-01
      21    -1     0     0   502   501  0.000000000E+00  0.000000000E+00  1.128276340E+02  1.128276340E+02  0.000000000E+00  0.00000E+00  9.000E+00
      21    -1     0     0   512   502  0.000000000E+00  0.000000000E+00 -1.840500913E+03  1.840500913E+03  0.000000000E+00  0.00000E+00  9.000E+00
      25     1     1     2     0     0  3.357335088E+01 -2.955574783E+02 -1.153583440E+03  1.197856898E+03  1.250000000E+02  0.00000E+00  9.000E+00
      25     1     1     2     0     0  3.822466284E+01  3.129711603E+02 -2.455473870E+02  4.187249590E+02  1.250000000E+02  0.00000E+00  9.000E+00
      21     1     1     2   512   501 -7.179801371E+01 -1.741368192E+01 -3.285424520E+02  3.367466909E+02  3.814697266E-06  0.00000E+00  9.000E+00
#rwgt            1           1   4.3041878005004995E-002           8      242219           0
</event>
<event>
      5   9999  3.79277E-02  3.72563E+01 -1.00000E+00  1.46780E-01
       2    -1     0     0   502     0  0.000000000E+00  0.000000000E+00  1.461952546E+03  1.461952546E+03  0.000000000E+00  0.00000E+00  9.000E+00
      21    -1     0     0   501   502  0.000000000E+00  0.000000000E+00 -1.448650090E+02  1.448650090E+02  0.000000000E+00  0.00000E+00  9.000E+00
      25     1     1     2     0     0 -1.341068714E+02 -3.171862671E+02  3.657097430E+02  5.176489130E+02  1.250000000E+02  0.00000E+00  9.000E+00
      25     1     1     2     0     0  1.696123529E+02  3.058992861E+02  4.373683710E+02  5.738107837E+02  1.250000000E+02  0.00000E+00  9.000E+00
       2     1     1     2   501     0 -3.550548151E+01  1.128698097E+01  5.140094232E+02  5.153578585E+02  7.629394531E-06  0.00000E+00  9.000E+00
#rwgt            1           1   3.8031310455099658E-002           8      242296           0
</event>
<event>
      5   9999 -3.79277E-02  1.36078E+01 -1.00000E+00  1.81464E-01
      21    -1     0     0   502   501  0.000000000E+00  0.000000000E+00  7.467023624E+02  7.467023624E+02  0.000000000E+00  0.00000E+00  9.000E+00
      21    -1     0     0   501   511  0.000000000E+00  0.000000000E+00 -1.438729715E+02  1.438729715E+02  0.000000000E+00  0.00000E+00  9.000E+00
      25     1     1     2     0     0 -8.849504930E+01 -3.632322653E+01  6.148026912E+02  6.346322554E+02  1.250000000E+02  0.00000E+00  9.000E+00
      25     1     1     2     0     0  7.961564379E+01  4.663479394E+01  7.174152981E+01  1.711294885E+02  1.250000000E+02  0.00000E+00  9.000E+00
      21     1     1     2   502   511  8.879405512E+00 -1.031156741E+01 -8.371483014E+01  8.481359001E+01  1.348699152E-06  0.00000E+00  9.000E+00
#rwgt            1           1  -4.5100047722186495E-002           8      242468           0
</event>
<event>
      5   9999  3.79277E-02  2.59895E+01 -1.00000E+00  1.57498E-01
      21    -1     0     0   512   501  0.000000000E+00  0.000000000E+00  2.522676543E+01  2.522676543E+01  0.000000000E+00  0.00000E+00  9.000E+00
      21    -1     0     0   501   502  0.000000000E+00  0.000000000E+00 -1.724741482E+03  1.724741482E+03  0.000000000E+00  0.00000E+00  9.000E+00
      25     1     1     2     0     0 -1.884941115E+01 -1.220138437E+02 -1.250473839E+03  1.262755915E+03  1.250000000E+02  0.00000E+00  9.000E+00
      25     1     1     2     0     0  1.850266758E+01  9.602666910E+01 -4.155089621E+02  4.447877780E+02  1.250000000E+02  0.00000E+00  9.000E+00
      21     1     1     2   512   502  3.467435681E-01  2.598717458E+01 -3.353191524E+01  4.242455437E+01  1.261592536E-06  0.00000E+00  9.000E+00
#rwgt            1           1   4.2178905665946800E-002           8      242634           0
</event>
<event>
      5   9999  3.79277E-02  1.30120E+01 -1.00000E+00  1.83405E-01
      21    -1     0     0   502   511  0.000000000E+00  0.000000000E+00  2.588854914E+02  2.588854914E+02  0.000000000E+00  0.00000E+00  9.000E+00
      21    -1     0     0   501   502  0.000000000E+00  0.000000000E+00 -1.359640731E+02  1.359640731E+02  0.000000000E+00  0.00000E+00  9.000E+00
      25     1     1     2     0     0  9.043366906E+01 -7.099084096E+01 -7.623971314E+00  1.700031557E+02  1.250000000E+02  0.00000E+00  9.000E+00
      25     1     1     2     0     0 -9.785832185E+01  6.030501449E+01  1.240685763E+02  2.103115725E+02  1.250000000E+02  0.00000E+00  9.000E+00
      21     1     1     2   501   511  7.424652786E+00  1.068582647E+01  6.476813315E+00  1.453483633E+01  1.192092896E-07  0.00000E+00  9.000E+00
#rwgt            1           1   3.1377830847820948E-002           8      242830           0
</event>
<event>
      5   9999  3.79277E-02  9.02216E+01 -1.00000E+00  1.25872E-01
      21    -1     0     0   502   501  0.000000000E+00  0.000000000E+00  5.528381982E+02  5.528381982E+02  0.000000000E+00  0.00000E+00  9.000E+00
      21    -1     0     0   501   512  0.000000000E+00  0.000000000E+00 -1.077288470E+02  1.077288470E+02  0.000000000E+00  0.00000E+00  9.000E+00
      25     1     1     2     0     0  1.026777250E+02  1.153553173E+02  1.129661394E+02  2.285517733E+02  1.250000000E+02  0.00000E+00  9.000E+00
      25     1     1     2     0     0 -9.751701333E+01 -2.528147314E+01  2.920910814E+02  3.333030462E+02  1.250000000E+02  0.00000E+00  9.000E+00
      21     1     1     2   502   512 -5.160711635E+00 -9.007384416E+01  4.005213042E+01  9.871222567E+01  6.743495762E-07  0.00000E+00  9.000E+00
#rwgt            1           1   4.5394573362049807E-002           8      243159           0
</event>
<event>
      5   9999  3.79277E-02  2.32153E+02 -1.00000E+00  1.09341E-01
      21    -1     0     0   511   501  0.000000000E+00  0.000000000E+00  1.110215969E+02  1.110215969E+02  0.000000000E+00  0.00000E+00  9.000E+00
      21    -1     0     0   501   502  0.000000000E+00  0.000000000E+00 -1.553651496E+03  1.553651496E+03  0.000000000E+00  0.00000E+00  9.000E+00
      25     1     1     2     0     0 -6.394660182E+01 -1.828892749E+02 -7.334152500E+02  7.688046460E+02  1.250000000E+02  0.00000E+00  9.000E+00
      25     1     1     2     0     0  1.018764380E+02 -4.614432458E+01 -6.278526660E+02  6.498708160E+02  1.250000000E+02  0.00000E+00  9.000E+00
      21     1     1     2   511   502 -3.792983621E+01  2.290335995E+02 -8.136198331E+01  2.459976311E+02  2.336015456E-06  0.00000E+00  9.000E+00
#rwgt            2          11   2.5554067022023276E-003           8      243419           0
</event>
<event>
      5   9999  3.79277E-02  9.77761E+01 -1.00000E+00  1.24269E-01
      21    -1     0     0   502   512  0.000000000E+00  0.000000000E+00  3.466511937E+02  3.466511937E+02  0.000000000E+00  0.00000E+00  9.000E+00
      21    -1     0     0   501   502  0.000000000E+00  0.000000000E+00 -1.987253310E+02  1.987253310E+02  0.000000000E+00  0.00000E+00  9.000E+00
      25     1     1     2     0     0 -1.784997068E+02  8.282967846E+01  1.479711282E+02  2.761219943E+02  1.250000000E+02  0.00000E+00  9.000E+00
      25     1     1     2     0     0  9.892834653E+01 -2.600917404E+01 -3.527391562E+01  1.653255697E+02  1.250000000E+02  0.00000E+00  9.000E+00
      21     1     1     2   501   512  7.957136025E+01 -5.682050442E+01  3.522865014E+01  1.039289608E+02  1.719260824E-06  0.00000E+00  9.000E+00
#rwgt            1           1   3.7654246394499748E-002           8      243574           0
</event>
<event>
      5   9999  3.79277E-02  5.18665E+01 -1.00000E+00  1.38173E-01
      21    -1     0     0   502   501  0.000000000E+00  0.000000000E+00  1.848482680E+02  1.848482680E+02  0.000000000E+00  0.00000E+00  9.000E+00
      21    -1     0     0   501   511  0.000000000E+00  0.000000000E+00 -1.880772229E+02  1.880772229E+02  0.000000000E+00  0.00000E+00  9.000E+00
      25     1     1     2     0     0  8.595906151E+01 -1.019388525E+01 -1.322708217E+01  1.526198914E+02  1.250000000E+02  0.00000E+00  9.000E+00
      25     1     1     2     0     0 -1.044377296E+02 -3.826923031E+01  1.603500302E+01  1.680889487E+02  1.250000000E+02  0.00000E+00  9.000E+00
      21     1     1     2   502   511  1.847866808E+01  4.846311556E+01 -6.036875736E+00  5.221665072E+01  5.900558792E-07  0.00000E+00  9.000E+00
#rwgt            1           1   5.1667599007915302E-002           8      243799           0
</event>
<event>
      5   9999  3.79277E-02  3.16666E+01 -1.00000E+00  1.51427E-01
      21    -1     0     0   502   501  0.000000000E+00  0.000000000E+00  7.940239700E+02  7.940239700E+02  0.000000000E+00  0.00000E+00  9.000E+00
      21    -1     0     0   512   502  0.000000000E+00  0.000000000E+00 -7.144559481E+01  7.144559481E+01  0.000000000E+00  0.00000E+00  9.000E+00
      25     1     1     2     0     0 -1.147810901E+02 -9.941927323E+01  1.827741573E+02  2.684963372E+02  1.250000000E+02  0.00000E+00  9.000E+00
      25     1     1     2     0     0  1.147719594E+02  1.310858304E+02  5.109924703E+02  5.541609895E+02  1.250000000E+02  0.00000E+00  9.000E+00
      21     1     1     2   512   501  9.130603647E-03 -3.166655722E+01  2.881174760E+01  4.281223808E+01  9.536743164E-07  0.00000E+00  9.000E+00
#rwgt            1           1   3.8907530214189481E-002           8      244094           0
</event>
<event>
      5   9999  3.79277E-02  1.28090E+01 -1.00000E+00  1.84098E-01
      21    -1     0     0   502   501  0.000000000E+00  0.000000000E+00  3.296662556E+02  3.296662556E+02  0.000000000E+00  0.00000E+00  9.000E+00
      21    -1     0     0   511   502  0.000000000E+00  0.000000000E+00 -2.060976317E+02  2.060976317E+02  0.000000000E+00  0.00000E+00  9.000E+00
      25     1     1     2     0     0  1.427371776E+02 -1.555720538E+02  1.139582843E+01  2.456245727E+02  1.250000000E+02  0.00000E+00  9.000E+00
      25     1     1     2     0     0 -1.368494167E+02  1.669476461E+02  1.181387284E+02  2.760091276E+02  1.250000000E+02  0.00000E+00  9.000E+00
      21     1     1     2   511   501 -5.887760967E+00 -1.137559232E+01 -5.965932863E+00  1.413018700E+01  3.862822472E-07  0.00000E+00  9.000E+00
#rwgt            1           1   2.8488665507850109E-002           8      244176           0
</event>
<event>
      5   9999  3.79277E-02  5.35698E+01 -1.00000E+00  1.37388E-01
       2    -1     0     0   502     0  0.000000000E+00  0.000000000E+00  2.255937576E+03  2.255937576E+03  0.000000000E+00  0.00000E+00  9.000E+00
      21    -1     0     0   501   502  0.000000000E+00  0.000000000E+00 -3.403271195E+01  3.403271195E+01  0.000000000E+00  0.00000E+00  9.000E+00
      25     1     1     2     0     0 -1.134721447E+02 -1.157592349E+02  3.655952045E+02  4.189999781E+02  1.250000000E+02  0.00000E+00  9.000E+00
      25     1     1     2     0     0  9.602896922E+01  6.510889505E+01  1.143178588E+03  1.155830012E+03  1.250000000E+02  0.00000E+00  9.000E+00
       2     1     1     2   501     0  1.744317547E+01  5.065033985E+01  7.131310710E+02  7.151402980E+02  0.000000000E+00  0.00000E+00  9.000E+00
#rwgt            1           1   6.1809203102820287E-002           8      244489           0
</event>
<event>
      5   9999  3.79277E-02  4.42943E+01 -1.00000E+00  1.42146E-01
      21    -1     0     0   502   501  0.000000000E+00  0.000000000E+00  4.551540453E+02  4.551540453E+02  0.000000000E+00  0.00000E+00  9.000E+00
      21    -1     0     0   511   502  0.000000000E+00  0.000000000E+00 -2.825342141E+02  2.825342141E+02  0.000000000E+00  0.00000E+00  9.000E+00
      25     1     1     2     0     0  5.740452036E+01  1.984114640E+02 -1.887339775E+01  2.421643928E+02  1.250000000E+02  0.00000E+00  9.000E+00
      25     1     1     2     0     0 -5.842151157E+01 -1.541288110E+02  3.079198342E+02  3.709560455E+02  1.250000000E+02  0.00000E+00  9.000E+00
      21     1     1     2   511   501  1.016991205E+00 -4.428265304E+01 -1.164266053E+02  1.245678211E+02  2.336015456E-06  0.00000E+00  9.000E+00
#rwgt            1           1  0.22846899104241672                8      244674           0
</event>
<event>
      5   9999  3.79277E-02  3.99315E+01 -1.00000E+00  1.44886E-01
      21    -1     0     0   502   501  0.000000000E+00  0.000000000E+00  5.122135269E+02  5.122135269E+02  0.000000000E+00  0.00000E+00  9.000E+00
      21    -1     0     0   512   502  0.000000000E+00  0.000000000E+00 -1.993813205E+02  1.993813205E+02  0.000000000E+00  0.00000E+00  9.000E+00
      25     1     1     2     0     0 -1.983789535E+02 -1.426877071E+02  3.952587131E+01  2.773108102E+02  1.250000000E+02  0.00000E+00  9.000E+00
      25     1     1     2     0     0  1.640308243E+02  1.223228425E+02  3.016324442E+02  3.853259925E+02  1.250000000E+02  0.00000E+00  9.000E+00
      21     1     1     2   512   501  3.434812919E+01  2.036486460E+01 -2.832610905E+01  4.895804472E+01  8.259061849E-07  0.00000E+00  9.000E+00
#rwgt            1           1   3.2640825812234077E-002           8      244866           0
</event>
<event>
      5   9999  3.79277E-02  4.81765E+01 -1.00000E+00  1.40002E-01
      21    -1     0     0   502   511  0.000000000E+00  0.000000000E+00  3.480110328E+01  3.480110328E+01  0.000000000E+00  0.00000E+00  9.000E+00
      21    -1     0     0   501   502  0.000000000E+00  0.000000000E+00 -1.354590929E+03  1.354590929E+03  0.000000000E+00  0.00000E+00  9.000E+00
      25     1     1     2     0     0 -6.796141243E+01  1.029207702E+02 -6.235535792E+02  6.478082313E+02  1.250000000E+02  0.00000E+00  9.000E+00
      25     1     1     2     0     0  1.127922983E+02 -1.205608267E+02 -5.723746764E+02  6.086828285E+02  1.250000000E+02  0.00000E+00  9.000E+00
      21     1     1     2   501   511 -4.483088583E+01  1.764005653E+01 -1.238615701E+02  1.329009724E+02  1.348699152E-06  0.00000E+00  9.000E+00
#rwgt            1           1   4.4442327962898695E-002           8      244981           0
</event>
<event>
      5   9999  3.79277E-02  5.95522E+01 -1.00000E+00  1.34877E-01
       2    -1     0     0   502     0  0.000000000E+00  0.000000000E+00  7.766995479E+02  7.766995479E+02  0.000000000E+00  0.00000E+00  9.000E+00
      21    -1     0     0   501   502  0.000000000E+00  0.000000000E+00 -2.212701236E+03  2.212701236E+03  0.000000000E+00  0.00000E+00  9.000E+00
      25     1     1     2     0     0  1.588038356E+01  1.610692286E+02 -2.058912600E+03  2.069043638E+03  1.250000000E+02  0.00000E+00  9.000E+00
      25     1     1     2     0     0 -4.040834951E+01 -1.068028236E+02 -9.891167762E+01  1.960821201E+02  1.250000000E+02  0.00000E+00  9.000E+00
       2     1     1     2   501     0  2.452796595E+01 -5.426640492E+01  7.218225888E+02  7.242750262E+02  1.078959322E-05  0.00000E+00  9.000E+00
#rwgt            1           1  0.15281346460285264                8      245127           0
</event>
<event>
      5   9999  3.79277E-02  1.49150E+01 -1.00000E+00  1.77616E-01
      21    -1     0     0   511   501  0.000000000E+00  0.000000000E+00  2.906789378E+02  2.906789378E+02  0.000000000E+00  0.00000E+00  9.000E+00
      21    -1     0     0   501   502  0.000000000E+00  0.000000000E+00 -1.198911956E+02  1.198911956E+02  0.000000000E+00  0.00000E+00  9.000E+00
      25     1     1     2     0     0 -7.056364236E+01 -2.817373423E+01  1.737579652E+02  2.271339195E+02  1.250000000E+02  0.00000E+00  9.000E+00
      25     1     1     2     0     0  5.615860587E+01  2.430701438E+01 -3.892076870E+01  1.445145190E+02  1.250000000E+02  0.00000E+00  9.000E+00
      21     1     1     2   511   502  1.440503649E+01  3.866719853E+00  3.595054567E+01  3.892169489E+01  4.768371582E-07  0.00000E+00  9.000E+00
#rwgt            1           1   4.4813161047860289E-002           8      245255           0
</event>
<event>
      5   9999  3.79277E-02  7.78965E+01 -1.00000E+00  1.28912E-01
      21    -1     0     0   502   501  0.000000000E+00  0.000000000E+00  3.374182596E+03  3.374182596E+03  0.000000000E+00  0.00000E+00  9.000E+00
      21    -1     0     0   501   512  0.000000000E+00  0.000000000E+00 -2.632279399E+01  2.632279399E+01  0.000000000E+00  0.00000E+00  9.000E+00
      25     1     1     2     0     0 -1.653405638E+02  5.373150746E+01  1.808444131E+03  1.821076537E+03  1.250000000E+02  0.00000E+00  9.000E+00
      25     1     1     2     0     0  2.416508645E+02 -3.809153868E+01  1.158111918E+03  1.190249688E+03  1.250000000E+02  0.00000E+00  9.000E+00
      21     1     1     2   502   512 -7.631030071E+01 -1.563996878E+01  3.813037526E+02  3.891791649E+02  5.394796609E-06  0.00000E+00  9.000E+00
#rwgt            1           1   4.3436066713587511E-002           8      245512           0
</event>
<event>
      5   9999  3.79277E-02  2.59096E+01 -1.00000E+00  1.57597E-01
      21    -1     0     0   502   501  0.000000000E+00  0.000000000E+00  7.828667506E+01  7.828667506E+01  0.000000000E+00  0.00000E+00  9.000E+00
      21    -1     0     0   511   502  0.000000000E+00  0.000000000E+00 -7.052448665E+02  7.052448665E+02  0.000000000E+00  0.00000E+00  9.000E+00
      25     1     1     2     0     0  4.944178832E+01  1.106967109E+02 -5.467265078E+02  5.737883988E+02  1.250000000E+02  0.00000E+00  9.000E+00
      25     1     1     2     0     0 -3.125361067E+01 -9.224419378E+01 -4.266298124E+01  1.641063967E+02  1.250000000E+02  0.00000E+00  9.000E+00
      21     1     1     2   511   501 -1.818817765E+01 -1.845251715E+01 -3.756870245E+01  4.563674615E+01  4.768371582E-07  0.00000E+00  9.000E+00
#rwgt            1           1   2.9311249536758101E-002           8      245611           0
</event>
<event>
      5   9999  3.79277E-02  9.73664E+01 -1.00000E+00  1.24352E-01
      21    -1     0     0   512   501  0.000000000E+00  0.000000000E+00  4.082692272E+02  4.082692272E+02  0.000000000E+00  0.00000E+00  9.000E+00
      21    -1     0     0   501   502  0.000000000E+00  0.000000000E+00 -3.515008901E+02  3.515008901E+02  0.000000000E+00  0.00000E+00  9.000E+00
      25     1     1     2     0     0 -1.012212611E+02  1.471171022E+02  5.003852352E+01  2.236471312E+02  1.250000000E+02  0.00000E+00  9.000E+00
      25     1     1     2     0     0  5.318198877E+00 -1.303001768E+02 -2.227799322E+02  2.868140818E+02  1.250000000E+02  0.00000E+00  9.000E+00
      21     1     1     2   512   502  9.590306219E+01 -1.681692545E+01  2.295097458E+02  2.493089042E+02  3.814697266E-06  0.00000E+00  9.000E+00
#rwgt            1           1   4.4496342654810006E-002           8      245749           0
</event>
<event>
      5   9999  3.79277E-02  2.82951E+01 -1.00000E+00  1.54826E-01
      21    -1     0     0   511   501  0.000000000E+00  0.000000000E+00  8.986576483E+01  8.986576483E+01  0.000000000E+00  0.00000E+00  9.000E+00
      21    -1     0     0   501   502  0.000000000E+00  0.000000000E+00 -1.415008648E+03  1.415008648E+03  0.000000000E+00  0.00000E+00  9.000E+00
      25     1     1     2     0     0  2.016023008E+02 -2.096432515E+02 -5.200271441E+02  6.088078607E+02  1.250000000E+02  0.00000E+00  9.000E+00
      25     1     1     2     0     0 -2.281728940E+02  2.193703087E+02 -7.970253710E+02  8.666375505E+02  1.250000000E+02  0.00000E+00  9.000E+00
      21     1     1     2   511   502  2.657059322E+01 -9.727057157E+00 -8.090367627E+00  2.942900123E+01  6.307962682E-07  0.00000E+00  9.000E+00
#rwgt            1           1   3.5348070066129486E-002           8      245901           0
</event>
<event>
      5   9999  3.79277E-02  6.77279E+01 -1.00000E+00  1.31951E-01
      21    -1     0     0   502   501  0.000000000E+00  0.000000000E+00  1.519955507E+03  1.519955507E+03  0.000000000E+00  0.00000E+00  9.000E+00
      21    -1     0     0   512   502  0.000000000E+00  0.000000000E+00 -6.592946372E+01  6.592946372E+01  0.000000000E+00  0.00000E+00  9.000E+00
      25     1     1     2     0     0 -1.356209310E+02 -1.020749215E+02  2.228922858E+02  3.067870558E+02  1.250000000E+02  0.00000E+00  9.000E+00
      25     1     1     2     0     0  7.879291953E+01  6.522876423E+01  1.187715988E+03  1.198648148E+03  1.250000000E+02  0.00000E+00  9.000E+00
      21     1     1     2   512   501  5.682801147E+01  3.684615730E+01  4.341776934E+01  8.044976625E+01  4.768371582E-07  0.00000E+00  9.000E+00
#rwgt            1           1   3.5454806547255038E-002           8      246184           0
</event>
<event>
      5   9999 -3.79277E-02  2.89079E+01 -1.00000E+00  1.54167E-01
      21    -1     0     0   511   501  0.000000000E+00  0.000000000E+00  1.866447397E+03  1.866447397E+03  0.000000000E+00  0.00000E+00  9.000E+00
      21    -1     0     0   501   502  0.000000000E+00  0.000000000E+00 -1.990468231E+02  1.990468231E+02  0.000000000E+00  0.00000E+00  9.000E+00
      25     1     1     2     0     0 -2.637086443E+01  2.242522196E+02  1.704101417E+02  3.092718818E+02  1.250000000E+02  0.00000E+00  9.000E+00
      25     1     1     2     0     0  3.010488445E+01 -2.529179207E+02  2.596037255E+01  2.849082653E+02  1.250000000E+02  0.00000E+00  9.000E+00
      21     1     1     2   511   502 -3.734020016E+00  2.866570111E+01  1.471030060E+03  1.471314074E+03  2.157918644E-05  0.00000E+00  9.000E+00
#rwgt            1           1 -0.25830776074574480                8      246380           0
</event>
<event>
      5   9999  3.79277E-02  3.00809E+02 -1.00000E+00  1.05554E-01
      21    -1     0     0   502   501  0.000000000E+00  0.000000000E+00  3.280707274E+02  3.280707274E+02  0.000000000E+00  0.00000E+00  9.000E+00
      21    -1     0     0   512   502  0.000000000E+00  0.000000000E+00 -8.031441116E+02  8.031441116E+02  0.000000000E+00  0.00000E+00  9.000E+00
      25     1     1     2     0     0  1.296498000E+02 -1.142289357E+02 -1.317547337E+02  2.506823294E+02  1.250000000E+02  0.00000E+00  9.000E+00
      25     1     1     2     0     0 -2.045281880E+02  4.055693340E+02 -7.421112413E+01  4.769177658E+02  1.250000000E+02  0.00000E+00  9.000E+00
      21     1     1     2   512   501  7.487838802E+01 -2.913403983E+02 -2.691075265E+02  4.036147439E+02  3.814697266E-06  0.00000E+00  9.000E+00
#rwgt            2          11   1.2196754430197252E-003           8      246588           0
</event>
<event>
      5   9999  3.79277E-02  2.74898E+01 -1.00000E+00  1.55723E-01
      21    -1     0     0   502   501  0.000000000E+00  0.000000000E+00  5.752353774E+02  5.752353774E+02  0.000000000E+00  0.00000E+00  9.000E+00
      21    -1     0     0   511   502  0.000000000E+00  0.000000000E+00 -6.006099692E+01  6.006099692E+01  0.000000000E+00  0.00000E+00  9.000E+00
      25     1     1     2     0     0 -7.135500472E+01  5.011972189E+01  1.467037884E+02  2.115431983E+02  1.250000000E+02  0.00000E+00  9.000E+00
      25     1     1     2     0     0  9.659305906E+01 -3.922328733E+01  3.598386983E+02  3.949399627E+02  1.250000000E+02  0.00000E+00  9.000E+00
      21     1     1     2   511   501 -2.523805434E+01 -1.089643456E+01  8.631893818E+00  2.881321335E+01  4.768371582E-07  0.00000E+00  9.000E+00
#rwgt            1           1   4.4331128862112282E-002           8      246653           0
</event>
<event>
      5   9999  3.79277E-02  1.17565E+02 -1.00000E+00  1.20747E-01
       2    -1     0     0   502     0  0.000000000E+00  0.000000000E+00  2.185252963E+02  2.185252963E+02  0.000000000E+00  0.00000E+00  9.000E+00
      21    -1     0     0   501   502  0.000000000E+00  0.000000000E+00 -5.453645989E+02  5.453645989E+02  0.000000000E+00  0.00000E+00  9.000E+00
      25     1     1     2     0     0 -1.423253441E+02  1.879847102E+02 -6.614556198E+01  2.749454313E+02  1.250000000E+02  0.00000E+00  9.000E+00
      25     1     1     2     0     0  7.961586651E+01 -8.854064941E+01 -3.151831993E+02  3.593655269E+02  1.250000000E+02  0.00000E+00  9.000E+00
       2     1     1     2   501     0  6.270947763E+01 -9.944406078E+01  5.448945870E+01  1.295789370E+02  6.743495762E-07  0.00000E+00  9.000E+00
#rwgt            1           1   3.7943976490970685E-002           8      246780           0
</event>
<event>
      5   9999  3.79277E-02  1.75288E+01 -1.00000E+00  1.71238E-01
      21    -1     0     0   502   511  0.000000000E+00  0.000000000E+00  6.317825720E+02  6.317825720E+02  0.000000000E+00  0.00000E+00  9.000E+00
      21    -1     0     0   501   502  0.000000000E+00  0.000000000E+00 -8.812782830E+01  8.812782830E+01  0.000000000E+00  0.00000E+00  9.000E+00
      25     1     1     2     0     0 -5.434765081E+01 -1.542822460E+02  1.389651087E+02  2.483807159E+02  1.250000000E+02  0.00000E+00  9.000E+00
      25     1     1     2     0     0  6.949393828E+01  1.631054253E+02  3.307584698E+02  3.955489256E+02  1.250000000E+02  0.00000E+00  9.000E+00
      21     1     1     2   501   511 -1.514628747E+01 -8.823179253E+00  7.393116529E+01  7.598075886E+01  0.000000000E+00  0.00000E+00  9.000E+00
#rwgt            1           1   3.7341536771702301E-002           8      246840           0
</event>
<event>
      5   9999  3.79277E-02  4.36281E+01 -1.00000E+00  1.42540E-01
       1    -1     0     0   502     0  0.000000000E+00  0.000000000E+00  5.392860138E+02  5.392860138E+02  0.000000000E+00  0.00000E+00  9.000E+00
      21    -1     0     0   501   502  0.000000000E+00  0.000000000E+00 -1.157360045E+02  1.157360045E+02  0.000000000E+00  0.00000E+00  9.000E+00
      25     1     1     2     0     0 -1.740531332E+01 -5.553117990E+01  2.240767611E+02  2.631008395E+02  1.250000000E+02  0.00000E+00  9.000E+00
      25     1     1     2     0     0 -2.435687296E+01  6.815379810E+01 -3.890069059E+01  1.495876371E+02  1.250000000E+02  0.00000E+00  9.000E+00
       1     1     1     2   501     0  4.176218629E+01 -1.262261820E+01  2.383739388E+02  2.423335416E+02  0.000000000E+00  0.00000E+00  9.000E+00
#rwgt            1           1   4.0146814219843979E-002           8      247094           0
</event>
<event>
      5   9999  3.79277E-02  4.82526E+01 -1.00000E+00  1.39963E-01
       2    -1     0     0   502     0  0.000000000E+00  0.000000000E+00  2.377366970E+03  2.377366970E+03  0.000000000E+00  0.00000E+00  9.000E+00
      21    -1     0     0   501   502  0.000000000E+00  0.000000000E+00 -1.259558452E+02  1.259558452E+02  0.000000000E+00  0.00000E+00  9.000E+00
      25     1     1     2     0     0 -3.596555799E+02 -1.048081790E+02  4.376978487E+02  5.895263330E+02  1.250000000E+02  0.00000E+00  9.000E+00
      25     1     1     2     0     0  3.116477967E+02  1.096622293E+02  5.797165133E+02  6.788566782E+02  1.250000000E+02  0.00000E+00  9.000E+00
       2     1     1     2   501     0  4.800778322E+01 -4.854050239E+00  1.233996763E+03  1.234939804E+03  2.642899792E-05  0.00000E+00  9.000E+00
#rwgt            1           1   2.9213168938045941E-002           8      247200           0
</event>
<event>
      5   9999  3.79277E-02  2.80959E+01 -1.00000E+00  1.55044E-01
      21    -1     0     0   502   501  0.000000000E+00  0.000000000E+00  5.697895418E+01  5.697895418E+01  0.000000000E+00  0.00000E+00  9.000E+00
      21    -1     0     0   511   502  0.000000000E+00  0.000000000E+00 -1.611625784E+03  1.611625784E+03  0.000000000E+00  0.00000E+00  9.000E+00
      25     1     1     2     0     0  1.989809963E+02 -8.215997564E+01 -1.111742677E+03  1.139271907E+03  1.250000000E+02  0.00000E+00  9.000E+00
      25     1     1     2     0     0 -1.805074889E+02  1.033286152E+02 -3.109965237E+02  3.944662140E+02  1.250000000E+02  0.00000E+00  9.000E+00
      21     1     1     2   511   501 -1.847350746E+01 -2.116863952E+01 -1.319076287E+02  1.348666167E+02  1.907348633E-06  0.00000E+00  9.000E+00
#rwgt            1           1   4.9509766210424543E-002           8      247347           0
</event>
<event>
      5   9999 -3.79277E-02  6.68240E+01 -1.00000E+00  1.32250E-01
      21    -1     0     0   502   501  0.000000000E+00  0.000000000E+00  6.120910652E+02  6.120910652E+02  0.000000000E+00  0.00000E+00  9.000E+00
      21    -1     0     0   501   512  0.000000000E+00  0.000000000E+00 -3.215196729E+02  3.215196729E+02  0.000000000E+00  0.00000E+00  9.000E+00
      25     1     1     2     0     0 -1.078736634E+02  4.040686660E+00 -1.279938941E+02  2.089509305E+02  1.250000000E+02  0.00000E+00  9.000E+00
      25     1     1     2     0     0  1.168628223E+02 -7.025729805E+01  5.483345425E+02  5.786957557E+02  1.250000000E+02  0.00000E+00  9.000E+00
      21     1     1     2   502   512 -8.989158873E+00  6.621661139E+01 -1.297692561E+02  1.459640519E+02  3.303624740E-06  0.00000E+00  9.000E+00
#rwgt            1           1  -3.1942944783863086E-002           8      247615           0
</event>
<event>
      5   9999  3.79277E-02  2.07269E+01 -1.00000E+00  1.65100E-01
      21    -1     0     0   511   501  0.000000000E+00  0.000000000E+00  6.143529787E+02  6.143529787E+02  0.000000000E+00  0.00000E+00  9.000E+00
      21    -1     0     0   501   502  0.000000000E+00  0.000000000E+00 -4.509824891E+02  4.509824891E+02  0.000000000E+00  0.00000E+00  9.000E+00
      25     1     1     2     0     0  6.062094587E+01  4.854085643E+02  1.624767838E+02  5.303961525E+02  1.250000000E+02  0.00000E+00  9.000E+00
      25     1     1     2     0     0 -8.036114777E+01 -4.917275366E+02 -3.720964365E+00  5.137049054E+02  1.250000000E+02  0.00000E+00  9.000E+00
      21     1     1     2   511   502  1.974020190E+01  6.318972317E+00  4.614670215E+00  2.123440989E+01  4.086288572E-07  0.00000E+00  9.000E+00
#rwgt            1           1  0.70050373215003459                8      247764           0
</event>
<event>
      5   9999  3.79277E-02  9.51894E+01 -1.00000E+00  1.24799E-01
       1    -1     0     0   502     0  0.000000000E+00  0.000000000E+00  5.020728364E+02  5.020728364E+02  0.000000000E+00  0.00000E+00  9.000E+00
      21    -1     0     0   501   502  0.000000000E+00  0.000000000E+00 -1.355531325E+02  1.355531325E+02  0.000000000E+00  0.00000E+00  9.000E+00
      25     1     1     2     0     0 -2.846150196E+01  2.067891609E+02  1.423015459E+02  2.818626334E+02  1.250000000E+02  0.00000E+00  9.000E+00
      25     1     1     2     0     0  4.222279355E+01 -1.125996910E+02  1.033418609E+02  2.019059061E+02  1.250000000E+02  0.00000E+00  9.000E+00
       1     1     1     2   501     0 -1.376129159E+01 -9.418946986E+01  1.208762970E+02  1.538574293E+02  1.348699152E-06  0.00000E+00  9.000E+00
#rwgt            1           1   5.2517802680909650E-002           8      248118           0
</event>
<event>
      5   9999  3.79277E-02  5.58426E+01 -1.00000E+00  1.36391E-01
      21    -1     0     0   502   501  0.000000000E+00  0.000000000E+00  1.072476740E+03  1.072476740E+03  0.000000000E+00  0.00000E+00  9.000E+00
      21    -1     0     0   501   511  0.000000000E+00  0.000000000E+00 -2.238163859E+02  2.238163859E+02  0.000000000E+00  0.00000E+00  9.000E+00
      25     1     1     2     0     0  1.056101421E+02 -2.883382641E+02  1.520595538E+02  3.647458904E+02  1.250000000E+02  0.00000E+00  9.000E+00
      25     1     1     2     0     0 -5.642986851E+01  3.147901449E+02  7.677877207E+02  8.410708350E+02  1.250000000E+02  0.00000E+00  9.000E+00
      21     1     1     2   502   511 -4.918027361E+01 -2.645188084E+01 -7.118692066E+01  9.047640016E+01  1.348699152E-06  0.00000E+00  9.000E+00
#rwgt            1           1   4.3892008018484564E-002           8      248234           0
</event>
<event>
      5   9999  3.79277E-02  4.78104E+01 -1.00000E+00  1.40194E-01
      21    -1     0     0   512   501  0.000000000E+00  0.000000000E+00  5.157863456E+01  5.157863456E+01  0.000000000E+00  0.00000E+00  9.000E+00
      21    -1     0     0   501   502  0.000000000E+00  0.000000000E+00 -1.568451373E+03  1.568451373E+03  0.000000000E+00  0.00000E+00  9.000E+00
      25     1     1     2     0     0  9.322308260E+01 -4.320696403E+01 -2.648594911E+02  3.103754740E+02  1.250000000E+02  0.00000E+00  9.000E+00
      25     1     1     2     0     0 -1.407181973E+02  4.868866682E+01 -1.246450820E+03  1.261521638E+03  1.250000000E+02  0.00000E+00  9.000E+00
      21     1     1     2   512   502  4.749511471E+01 -5.481702793E+00 -5.562427219E+00  4.813289503E+01  1.257361359E-06  0.00000E+00  9.000E+00
#rwgt            1           1   5.2033374164838456E-002           8      248390           0
</event>
<event>
      5   9999 -3.79277E-02  2.66637E+02 -1.00000E+00  1.07283E-01
      21    -1     0     0   502   511  0.000000000E+00  0.000000000E+00  6.258651986E+02  6.258651986E+02  0.000000000E+00  0.00000E+00  9.000E+00
      21    -1     0     0   501   502  0.000000000E+00  0.000000000E+00 -1.182010188E+03  1.182010188E+03  0.000000000E+00  0.00000E+00  9.000E+00
      25     1     1     2     0     0  8.789989009E+01  1.410361474E+02 -2.130890557E+02  2.977407114E+02  1.250000000E+02  0.00000E+00  9.000E+00
      25     1     1     2     0     0 -1.413208144E+01  1.151931058E+02 -8.875864378E+02  9.038273353E+02  1.250000000E+02  0.00000E+00  9.000E+00
      21     1     1     2   501   511 -7.376780865E+01 -2.562292532E+02  5.445305045E+02  6.063073396E+02  0.000000000E+00  0.00000E+00  9.000E+00
#rwgt            1           1 -0.10426930556396014                8      248564           0
</event>
<event>
      5   9999  3.79277E-02  2.39368E+01 -1.00000E+00  1.60178E-01
      21    -1     0     0   502   512  0.000000000E+00  0.000000000E+00  1.379208153E+02  1.379208153E+02  0.000000000E+00  0.00000E+00  9.000E+00
      21    -1     0     0   501   502  0.000000000E+00  0.000000000E+00 -4.570483056E+02  4.570483056E+02  0.000000000E+00  0.00000E+00  9.000E+00
      25     1     1     2     0     0 -6.586242352E+00  1.693457712E+01  8.569140351E+01  1.526373975E+02  1.250000000E+02  0.00000E+00  9.000E+00
      25     1     1     2     0     0 -8.356769254E+00  1.765040254E+00 -3.982735420E+02  4.175161856E+02  1.250000000E+02  0.00000E+00  9.000E+00
      21     1     1     2   501   512  1.494301161E+01 -1.869961738E+01 -6.545351836E+00  2.481553780E+01  5.331201500E-07  0.00000E+00  9.000E+00
#rwgt            1           1   4.7843690339596234E-002           8      248697           0
</event>
<event>
      5   9999  3.79277E-02  2.67037E+01 -1.00000E+00  1.56636E-01
      21    -1     0     0   502   501  0.000000000E+00  0.000000000E+00  3.133414474E+02  3.133414474E+02  0.000000000E+00  0.00000E+00  9.000E+00
      21    -1     0     0   501   511  0.000000000E+00  0.000000000E+00 -3.658386768E+02  3.658386768E+02  0.000000000E+00  0.00000E+00  9.000E+00
      25     1     1     2     0     0  2.430411066E+02  3.740503970E+01 -1.625112619E+02  3.201609388E+02  1.250000000E+02  0.00000E+00  9.000E+00
      25     1     1     2     0     0 -2.465360047E+02 -1.093105947E+01  1.471077891E+02  3.133132478E+02  1.250000000E+02  0.00000E+00  9.000E+00
      21     1     1     2   502   511  3.494898100E+00 -2.647398023E+01 -3.709375665E+01  4.570593752E+01  0.000000000E+00  0.00000E+00  9.000E+00
#rwgt            1           1   2.9453184731837549E-002           8      248918           0
</event>
<event>
      5   9999  3.79277E-02  9.65314E+00 -1.00000E+00  1.97546E-01
      21    -1     0     0   502   501  0.000000000E+00  0.000000000E+00  1.722402043E+02  1.722402043E+02  0.000000000E+00  0.00000E+00  9.000E+00
      21    -1     0     0   512   502  0.000000000E+00  0.000000000E+00 -2.745341291E+02  2.745341291E+02  0.000000000E+00  0.00000E+00  9.000E+00
      25     1     1     2     0     0  4.090658474E+01 -1.344637807E+02  4.770362660E+01  1.940476564E+02  1.250000000E+02  0.00000E+00  9.000E+00
      25     1     1     2     0     0 -3.484588856E+01  1.419771724E+02 -1.353886095E+02  2.352165577E+02  1.250000000E+02  0.00000E+00  9.000E+00
      21     1     1     2   512   501 -6.060696180E+00 -7.513391780E+00 -1.460894185E+01  1.751011925E+01  2.384185791E-07  0.00000E+00  9.000E+00
#rwgt            1           1   3.0387841558703256E-002           8      249062           0
</event>
<event>
      5   9999  3.79277E-02  1.88671E+02 -1.00000E+00  1.12578E-01
      21    -1     0     0   511   501  0.000000000E+00  0.000000000E+00  1.488236298E+02  1.488236298E+02  0.000000000E+00  0.00000E+00  9.000E+00
      21    -1     0     0   501   502  0.000000000E+00  0.000000000E+00 -9.290500181E+02  9.290500181E+02  0.000000000E+00  0.00000E+00  9.000E+00
      25     1     1     2     0     0  2.283440728E+02  5.924553993E+01 -3.641768922E+02  4.515538267E+02  1.250000000E+02  0.00000E+00  9.000E+00
      25     1     1     2     0     0 -6.073968006E+01  2.738969173E+01 -4.140804836E+02  4.376381506E+02  1.250000000E+02  0.00000E+00  9.000E+00
      21     1     1     2   511   502 -1.676043928E+02 -8.663523165E+01 -1.969012445E+00  1.886816707E+02  1.175587352E-06  0.00000E+00  9.000E+00
#rwgt            1           1   4.7796738004865613E-002           8      249385           0
</event>
<event>
      5   9999  3.79277E-02  1.91633E+01 -1.00000E+00  1.67915E-01
      21    -1     0     0   502   501  0.000000000E+00  0.000000000E+00  3.198680312E+02  3.198680312E+02  0.000000000E+00  0.00000E+00  9.000E+00
      21    -1     0     0   512   502  0.000000000E+00  0.000000000E+00 -2.103062761E+02  2.103062761E+02  0.000000000E+00  0.00000E+00  9.000E+00
      25     1     1     2     0     0 -8.302444602E+01  1.320171324E+02  2.060662487E+02  2.870712119E+02  1.250000000E+02  0.00000E+00  9.000E+00
      25     1     1     2     0     0  8.987951568E+01 -1.141219222E+02 -5.822203906E+01  2.002921523E+02  1.250000000E+02  0.00000E+00  9.000E+00
      21     1     1     2   512   501 -6.855069667E+00 -1.789521022E+01 -3.828245447E+01  4.281094310E+01  4.768371582E-07  0.00000E+00  9.000E+00
#rwgt            1           1   9.2336874586883402E-002           8      249415           0
</event>
<event>
      5   9999  3.79277E-02  2.66537E+02 -1.00000E+00  1.07288E-01
      21    -1     0     0   502   501  0.000000000E+00  0.000000000E+00  1.104354642E+03  1.104354642E+03  0.000000000E+00  0.00000E+00  9.000E+00
      21    -1     0     0   511   502  0.000000000E+00  0.000000000E+00 -3.346580201E+02  3.346580201E+02  0.000000000E+00  0.00000E+00  9.000E+00
      25     1     1     2     0     0  3.326497949E+02  5.505366211E+01  2.150845002E+02  4.190144795E+02  1.250000000E+02  0.00000E+00  9.000E+00
      25     1     1     2     0     0 -7.591054264E+01  1.654965025E+01  7.007419087E+02  7.160310915E+02  1.250000000E+02  0.00000E+00  9.000E+00
      21     1     1     2   511   501 -2.567392523E+02 -7.160331236E+01 -1.461297868E+02  3.039670913E+02  2.697398305E-06  0.00000E+00  9.000E+00
#rwgt            2          11   1.7123670712125567E-003           8      249865           0
</event>
<event>
      5   9999  3.79277E-02  8.98970E+01 -1.00000E+00  1.25945E-01
      21    -1     0     0   502   512  0.000000000E+00  0.000000000E+00  1.061875655E+02  1.061875655E+02  0.000000000E+00  0.00000E+00  9.000E+00
      21    -1     0     0   501   502  0.000000000E+00  0.000000000E+00 -1.351124561E+03  1.351124561E+03  0.000000000E+00  0.00000E+00  9.000E+00
      25     1     1     2     0     0 -1.296483750E+02  3.875286814E+01 -6.396878895E+02  6.656846715E+02  1.250000000E+02  0.00000E+00  9.000E+00
      25     1     1     2     0     0  1.903669509E+02 -1.050456029E+02 -6.459626445E+02  6.929407570E+02  1.250000000E+02  0.00000E+00  9.000E+00
      21     1     1     2   501   512 -6.071857595E+01  6.629273475E+01  4.071353841E+01  9.868669797E+01  8.259061849E-07  0.00000E+00  9.000E+00
#rwgt            1           1   3.4699219073714045E-002           8      249930           0
</event>
<event>
      5   9999  3.79277E-02  7.49570E+01 -1.00000E+00  1.29733E-01
      21    -1     0     0   502   511  0.000000000E+00  0.000000000E+00  1.108950414E+02  1.108950414E+02  0.000000000E+00  0.00000E+00  9.000E+00
      21    -1     0     0   501   502  0.000000000E+00  0.000000000E+00 -3.825984593E+02  3.825984593E+02  0.000000000E+00  0.00000E+00  9.000E+00
      25     1     1     2     0     0 -3.986994238E+01 -1.963654345E+01 -2.925222704E+01  1.358524896E+02  1.250000000E+02  0.00000E+00  9.000E+00
      25     1     1     2     0     0  1.146775561E+02  1.490625774E+01 -2.222906451E+02  2.800201230E+02  1.250000000E+02  0.00000E+00  9.000E+00
      21     1     1     2   501   511 -7.480761373E+01  4.730285711E+00 -2.016054582E+01  7.762088818E+01  1.261592536E-06  0.00000E+00  9.000E+00
#rwgt            1           1   3.6180392717454657E-002           8      250002           0
</event>
<event>
      5   9999  3.79277E-02  3.75463E+01 -1.00000E+00  1.46566E-01
      21    -1     0     0   502   501  0.000000000E+00  0.000000000E+00  4.580477948E+02  4.580477948E+02  0.000000000E+00  0.00000E+00  9.000E+00
       2    -1     0     0   501     0  0.000000000E+00  0.000000000E+00 -4.804947094E+02  4.804947094E+02  0.000000000E+00  0.00000E+00  9.000E+00
      25     1     1     2     0     0  9.302452460E+01  5.185287986E+01  2.873781009E+02  3.309886043E+02  1.250000000E+02  0.00000E+00  9.000E+00
      25     1     1     2     0     0 -9.308079343E+01 -1.430664130E+01  1.066509883E+02  1.893888788E+02  1.250000000E+02  0.00000E+00  9.000E+00
       2     1     1     2   502     0  5.626883091E-02 -3.754623856E+01 -4.164760037E+02  4.181650211E+02  5.394796609E-06  0.00000E+00  9.000E+00
#rwgt            1           1   8.8442303721880972E-002           8      250050           0
</event>
<event>
      5   9999  3.79277E-02  1.55031E+02 -1.00000E+00  1.15829E-01
      21    -1     0     0   502   501  0.000000000E+00  0.000000000E+00  1.536788870E+03  1.536788870E+03  0.000000000E+00  0.00000E+00  9.000E+00
       1    -1     0     0   501     0  0.000000000E+00  0.000000000E+00 -1.267516757E+03  1.267516757E+03  0.000000000E+00  0.00000E+00  9.000E+00
      25     1     1     2     0     0 -7.486677938E+01 -2.631801575E+02  1.200323750E+03  1.237445326E+03  1.250000000E+02  0.00000E+00  9.000E+00
      25     1     1     2     0     0 -7.939517546E+01  2.477586665E+02  2.462408358E+02  3.794041380E+02  1.250000000E+02  0.00000E+00  9.000E+00
       1     1     1     2   502     0  1.542619548E+02  1.542149091E+01 -1.177292473E+03  1.187456163E+03  1.525878906E-05  0.00000E+00  9.000E+00
#rwgt            1           1   3.1964844564412197E-002           8      250196           0
</event>
<event>
      5   9999  3.79277E-02  3.26747E+01 -1.00000E+00  1.50508E-01
      21    -1     0     0   502   501  0.000000000E+00  0.000000000E+00  1.137823418E+03  1.137823418E+03  0.000000000E+00  0.00000E+00  9.000E+00
      -2    -1     0     0     0   502  0.000000000E+00  0.000000000E+00 -7.591291345E+01  7.591291345E+01  0.000000000E+00  0.00000E+00  9.000E+00
      25     1     1     2     0     0  5.525377723E+01  1.209905614E+02  3.881493352E+02  4.289249378E+02  1.250000000E+02  0.00000E+00  9.000E+00
      25     1     1     2     0     0 -4.486511467E+01 -9.001130562E+01  7.146690276E+02  7.324559596E+02  1.250000000E+02  0.00000E+00  9.000E+00
      -2     1     1     2     0   501 -1.038866257E+01 -3.097925574E+01 -4.090785835E+01  5.235543402E+01  1.261592536E-06  0.00000E+00  9.000E+00
#rwgt            1           1   2.5794387716257559E-002           8      250256           0
</event>
<event>
      5   9999  3.79277E-02  7.20744E+00 -1.00000E+00  2.13777E-01
       2    -1     0     0   502     0  0.000000000E+00  0.000000000E+00  2.753228576E+03  2.753228576E+03  0.000000000E+00  0.00000E+00  9.000E+00
      21    -1     0     0   501   502  0.000000000E+00  0.000000000E+00 -2.461496590E+01  2.461496590E+01  0.000000000E+00  0.00000E+00  9.000E+00
      25     1     1     2     0     0 -6.220038527E+01  9.989015666E+01  1.449087793E+03  1.459221492E+03  1.250000000E+02  0.00000E+00  9.000E+00
      25     1     1     2     0     0  5.822583276E+01 -1.059026531E+02  3.673659698E+02  4.064337281E+02  1.250000000E+02  0.00000E+00  9.000E+00
       2     1     1     2   501     0  3.974552513E+00  6.012496488E+00  9.121598473E+02  9.121883217E+02  0.000000000E+00  0.00000E+00  9.000E+00
#rwgt            1           1  0.15543125434123412                8      250380           0
</event>
<event>
      5   9999  3.79277E-02  6.43205E+00 -1.00000E+00  2.20882E-01
      21    -1     0     0   502   501  0.000000000E+00  0.000000000E+00  1.474514940E+03  1.474514940E+03  0.000000000E+00  0.00000E+00  9.000E+00
      21    -1     0     0   501   511  0.000000000E+00  0.000000000E+00 -2.282795389E+01  2.282795389E+01  0.000000000E+00  0.00000E+00  9.000E+00
      25     1     1     2     0     0 -1.134371084E+02  6.783436976E+01  7.814951607E+02  8.023896594E+02  1.250000000E+02  0.00000E+00  9.000E+00
      25     1     1     2     0     0  1.087543573E+02 -6.342493369E+01  6.481064334E+02  6.719502819E+02  1.250000000E+02  0.00000E+00  9.000E+00
      21     1     1     2   502   511  4.682751125E+00 -4.409436070E+00  2.208539229E+01  2.300295279E+01  0.000000000E+00  0.00000E+00  9.000E+00
#rwgt            1           1   2.9661233724488104E-002           8      250788           0
</event>
<event>
      5   9999  3.79277E-02  4.34851E+01 -1.00000E+00  1.42625E-01
      21    -1     0     0   502   501  0.000000000E+00  0.000000000E+00  6.366294920E+02  6.366294920E+02  0.000000000E+00  0.00000E+00  9.000E+00
      21    -1     0     0   512   502  0.000000000E+00  0.000000000E+00 -3.068520501E+02  3.068520501E+02  0.000000000E+00  0.00000E+00  9.000E+00
      25     1     1     2     0     0 -1.229471629E+02 -1.458698694E+02  4.256235312E+02  4.828813663E+02  1.250000000E+02  0.00000E+00  9.000E+00
      25     1     1     2     0     0  1.205025430E+02  1.024535688E+02  1.238752188E+02  2.366171305E+02  1.250000000E+02  0.00000E+00  9.000E+00
      21     1     1     2   512   501  2.444619885E+00  4.341630059E+01 -2.197213081E+02  2.239830452E+02  2.697398305E-06  0.00000E+00  9.000E+00
#rwgt            1           1   4.6613773812461345E-002           8      251107           0
</event>
<event>
      5   9999  3.79277E-02  2.21669E+01 -1.00000E+00  1.62765E-01
       1    -1     0     0   502     0  0.000000000E+00  0.000000000E+00  2.241640569E+03  2.241640569E+03  0.000000000E+00  0.00000E+00  9.000E+00
      21    -1     0     0   501   502  0.000000000E+00  0.000000000E+00 -1.443396045E+03  1.443396045E+03  0.000000000E+00  0.00000E+00  9.000E+00
      25     1     1     2     0     0  2.091466561E+02  1.630235177E+02 -9.247846117E+02  9.701394586E+02  1.250000000E+02  0.00000E+00  9.000E+00
      25     1     1     2     0     0 -2.106707137E+02 -1.409090770E+02 -4.556144076E+02  5.361408453E+02  1.250000000E+02  0.00000E+00  9.000E+00
       1     1     1     2   501     0  1.524057594E+00 -2.211444072E+01  2.178643543E+03  2.178756310E+03  0.000000000E+00  0.00000E+00  9.000E+00
#rwgt            1           1   4.3956295319723018E-002           8      251324           0
</event>
<event>
      5   9999  3.79277E-02  2.66802E+01 -1.00000E+00  1.56664E-01
      -5    -1     0     0     0   501  0.000000000E+00  0.000000000E+00  3.687806137E+02  3.687806137E+02  0.000000000E+00  0.00000E+00  9.000E+00
      21    -1     0     0   501   502  0.000000000E+00  0.000000000E+00 -5.938992864E+02  5.938992864E+02  0.000000000E+00  0.00000E+00  9.000E+00
      25     1     1     2     0     0  6.718800595E+01 -7.903592122E+01 -3.065581354E+02  3.469348576E+02  1.250000000E+02  0.00000E+00  9.000E+00
      25     1     1     2     0     0 -5.083802327E+01  5.795250311E+01 -2.463866116E+02  2.868350739E+02  1.250000000E+02  0.00000E+00  9.000E+00
      -5     1     1     2     0   502 -1.634998268E+01  2.108341811E+01  3.278260744E+02  3.289099687E+02  0.000000000E+00  0.00000E+00  9.000E+00
#rwgt            1           1   3.0240294150071283E-002           8      251530           0
</event>
<event>
      5   9999  3.79277E-02  3.04251E+01 -1.00000E+00  1.52617E-01
      21    -1     0     0   502   501  0.000000000E+00  0.000000000E+00  4.876944250E+02  4.876944250E+02  0.000000000E+00  0.00000E+00  9.000E+00
      21    -1     0     0   511   502  0.000000000E+00  0.000000000E+00 -2.346144000E+02  2.346144000E+02  0.000000000E+00  0.00000E+00  9.000E+00
      25     1     1     2     0     0 -1.575962591E+02 -7.824967465E+01 -7.217231998E+00  2.159552752E+02  1.250000000E+02  0.00000E+00  9.000E+00
      25     1     1     2     0     0  1.648921493E+02  4.871230880E+01  3.511843511E+02  4.105091453E+02  1.250000000E+02  0.00000E+00  9.000E+00
      21     1     1     2   511   501 -7.295890245E+00  2.953736586E+01 -9.088709407E+01  9.584440445E+01  1.348699152E-06  0.00000E+00  9.000E+00
#rwgt            1           1   3.3398444111017535E-002           8      251639           0
</event>
<event>
      5   9999  3.79277E-02  9.18975E+00 -1.00000E+00  2.00097E-01
      -1    -1     0     0     0   501  0.000000000E+00  0.000000000E+00  4.333530075E+02  4.333530075E+02  0.000000000E+00  0.00000E+00  9.000E+00
      21    -1     0     0   501   502  0.000000000E+00  0.000000000E+00 -1.515900805E+02  1.515900805E+02  0.000000000E+00  0.00000E+00  9.000E+00
      25     1     1     2     0     0  2.045573131E+01 -7.935279230E+01  7.970750061E+01  1.693918187E+02  1.250000000E+02  0.00000E+00  9.000E+00
      25     1     1     2     0     0 -1.293321416E+01  8.463136482E+01 -5.286418745E+01  1.604660657E+02  1.250000000E+02  0.00000E+00  9.000E+00
      -1     1     1     2     0   502 -7.522517156E+00 -5.278572516E+00  2.549196138E+02  2.550852036E+02  2.697398305E-06  0.00000E+00  9.000E+00
#rwgt            1           1   3.7800616900661145E-002           8      251881           0
</event>
<event>
      5   9999  3.79277E-02  6.67155E+00 -1.00000E+00  2.18546E-01
      21    -1     0     0   502   501  0.000000000E+00  0.000000000E+00  1.401966983E+02  1.401966983E+02  0.000000000E+00  0.00000E+00  9.000E+00
      21    -1     0     0   501   511  0.000000000E+00  0.000000000E+00 -5.065944177E+02  5.065944177E+02  0.000000000E+00  0.00000E+00  9.000E+00
      25     1     1     2     0     0 -1.305630346E+02  1.437270932E+00 -4.016738837E+02  4.404721110E+02  1.250000000E+02  0.00000E+00  9.000E+00
      25     1     1     2     0     0  1.240424520E+02 -2.848526226E+00  5.578890722E+01  1.847486026E+02  1.250000000E+02  0.00000E+00  9.000E+00
      21     1     1     2   502   511  6.520582521E+00  1.411255294E+00 -2.051274283E+01  2.157040232E+01  2.384185791E-07  0.00000E+00  9.000E+00
#rwgt            1           1   2.6137924668277440E-002           8      252362           0
</event>
<event>
      5   9999  3.79277E-02  4.73701E+01 -1.00000E+00  1.40428E-01
      21    -1     0     0   512   501  0.000000000E+00  0.000000000E+00  1.433985151E+02  1.433985151E+02  0.000000000E+00  0.00000E+00  9.000E+00
      21    -1     0     0   501   502  0.000000000E+00  0.000000000E+00 -5.838298819E+02  5.838298819E+02  0.000000000E+00  0.00000E+00  9.000E+00
      25     1     1     2     0     0  1.403720658E+02 -9.279953695E+01 -1.503133205E+02  2.579441126E+02  1.250000000E+02  0.00000E+00  9.000E+00
      25     1     1     2     0     0 -1.746757711E+02  6.013184600E+01 -3.360260097E+02  4.033186620E+02  1.250000000E+02  0.00000E+00  9.000E+00
      21     1     1     2   512   502  3.430370523E+01  3.266769095E+01  4.590796343E+01  6.596562234E+01  9.536743164E-07  0.00000E+00  9.000E+00
#rwgt            1           1   3.1998255620402163E-002           8      252885           0
</event>
<event>
      5   9999  3.79277E-02  1.74972E+02 -1.00000E+00  1.13803E-01
      21    -1     0     0   502   501  0.000000000E+00  0.000000000E+00  1.256910386E+02  1.256910386E+02  0.000000000E+00  0.00000E+00  9.000E+00
      21    -1     0     0   511   502  0.000000000E+00  0.000000000E+00 -1.938449430E+03  1.938449430E+03  0.000000000E+00  0.00000E+00  9.000E+00
      25     1     1     2     0     0 -2.198119824E+01 -1.465721229E+02 -2.678088877E+00  1.939039258E+02  1.250000000E+02  0.00000E+00  9.000E+00
      25     1     1     2     0     0  1.488307672E+02  2.605461144E+01 -3.626912714E+02  4.123098330E+02  1.250000000E+02  0.00000E+00  9.000E+00
      21     1     1     2   511   501 -1.268495689E+02  1.205175115E+02 -1.447389031E+03  1.457926709E+03  2.157918644E-05  0.00000E+00  9.000E+00
#rwgt            2          11   1.0357924117390446E-003           8      253006           0
</event>
<event>
      5   9999  3.79277E-02  3.11566E+01 -1.00000E+00  1.51907E-01
      21    -1     0     0   502   512  0.000000000E+00  0.000000000E+00  6.188147727E+02  6.188147727E+02  0.000000000E+00  0.00000E+00  9.000E+00
      21    -1     0     0   501   502  0.000000000E+00  0.000000000E+00 -1.260544570E+02  1.260544570E+02  0.000000000E+00  0.00000E+00  9.000E+00
      25     1     1     2     0     0 -7.910548051E+01  2.483077164E+00  1.152307030E+02  1.875285515E+02  1.250000000E+02  0.00000E+00  9.000E+00
      25     1     1     2     0     0  5.164530532E+01 -1.720284580E+01 -3.729519123E+01  1.413474682E+02  1.250000000E+02  0.00000E+00  9.000E+00
      21     1     1     2   501   512  2.746017519E+01  1.471976863E+01  4.148248040E+02  4.159932101E+02  0.000000000E+00  0.00000E+00  9.000E+00
#rwgt            1           1   5.6222420715015049E-002           8      253086           0
</event>
<event>
      5   9999  3.79277E-02  5.10315E+01 -1.00000E+00  1.38571E-01
      21    -1     0     0   511   501  0.000000000E+00  0.000000000E+00  3.770116674E+02  3.770116674E+02  0.000000000E+00  0.00000E+00  9.000E+00
      21    -1     0     0   501   502  0.000000000E+00  0.000000000E+00 -1.957436648E+02  1.957436648E+02  0.000000000E+00  0.00000E+00  9.000E+00
      25     1     1     2     0     0  9.341596994E+01  1.075889102E+02 -5.740356787E+01  1.980456681E+02  1.250000000E+02  0.00000E+00  9.000E+00
      25     1     1     2     0     0 -5.670226194E+01 -1.430335276E+02  9.035529379E+01  2.178596237E+02  1.250000000E+02  0.00000E+00  9.000E+00
      21     1     1     2   511   502 -3.671370801E+01  3.544461741E+01  1.483162767E+02  1.568500405E+02  3.303624740E-06  0.00000E+00  9.000E+00
#rwgt            1           1   3.7154392385833852E-002           8      253220           0
</event>
<event>
      5   9999  3.79277E-02  2.60383E+01 -1.00000E+00  1.57438E-01
      21    -1     0     0   502   512  0.000000000E+00  0.000000000E+00  2.468889305E+02  2.468889305E+02  0.000000000E+00  0.00000E+00  9.000E+00
      21    -1     0     0   501   502  0.000000000E+00  0.000000000E+00 -2.377638964E+02  2.377638964E+02  0.000000000E+00  0.00000E+00  9.000E+00
      25     1     1     2     0     0 -1.182554746E+02 -1.466700124E+02 -1.281560231E+01  2.264634396E+02  1.250000000E+02  0.00000E+00  9.000E+00
      25     1     1     2     0     0  1.344360372E+02  1.262694412E+02 -2.005757325E+00  2.228139200E+02  1.250000000E+02  0.00000E+00  9.000E+00
      21     1     1     2   501   512 -1.618056259E+01  2.040057121E+01  2.394639375E+01  3.537546728E+01  3.371747881E-07  0.00000E+00  9.000E+00
#rwgt            1           1   4.3892063810320736E-002           8      253325           0
</event>
<event>
      5   9999  3.79277E-02  2.82676E+01 -1.00000E+00  1.54856E-01
      21    -1     0     0   502   501  0.000000000E+00  0.000000000E+00  7.938073678E+02  7.938073678E+02  0.000000000E+00  0.00000E+00  9.000E+00
      21    -1     0     0   501   511  0.000000000E+00  0.000000000E+00 -1.308927560E+02  1.308927560E+02  0.000000000E+00  0.00000E+00  9.000E+00
      25     1     1     2     0     0  1.496497815E+01 -1.681966918E+02  5.327665525E+02  5.726947504E+02  1.250000000E+02  0.00000E+00  9.000E+00
      25     1     1     2     0     0 -2.467860717E+01  1.947429259E+02  1.803290907E+02  2.944102950E+02  1.250000000E+02  0.00000E+00  9.000E+00
      21     1     1     2   502   511  9.713629014E+00 -2.654623408E+01 -5.018103146E+01  5.759507836E+01  1.348699152E-06  0.00000E+00  9.000E+00
#rwgt            1           1   3.5015419638998520E-002           8      253601           0
</event>
<event>
      5   9999  3.79277E-02  1.57270E+01 -1.00000E+00  1.75469E-01
      21    -1     0     0   512   501  0.000000000E+00  0.000000000E+00  1.069321875E+03  1.069321875E+03  0.000000000E+00  0.00000E+00  9.000E+00
      21    -1     0     0   501   502  0.000000000E+00  0.000000000E+00 -7.666046375E+01  7.666046375E+01  0.000000000E+00  0.00000E+00  9.000E+00
      25     1     1     2     0     0 -1.495167401E+02 -1.693217725E+02  2.968049936E+02  3.933742778E+02  1.250000000E+02  0.00000E+00  9.000E+00
      25     1     1     2     0     0  1.650919954E+02  1.715013292E+02  6.314743862E+02  6.863329901E+02  1.250000000E+02  0.00000E+00  9.000E+00
      21     1     1     2   512   502 -1.557525533E+01 -2.179556770E+00  6.438203148E+01  6.627507091E+01  9.536743164E-07  0.00000E+00  9.000E+00
#rwgt            1           1   3.6856758489250546E-002           8      253918           0
</event>
<event>
      5   9999  3.79277E-02  1.14136E+01 -1.00000E+00  1.89345E-01
      21    -1     0     0   502   501  0.000000000E+00  0.000000000E+00  7.575625154E+02  7.575625154E+02  0.000000000E+00  0.00000E+00  9.000E+00
      21    -1     0     0   501   511  0.000000000E+00  0.000000000E+00 -1.059683865E+02  1.059683865E+02  0.000000000E+00  0.00000E+00  9.000E+00
      25     1     1     2     0     0 -1.109184868E+01  1.745472915E+02  3.691448865E+02  4.271799777E+02  1.250000000E+02  0.00000E+00  9.000E+00
      25     1     1     2     0     0  2.234156936E+01 -1.726201243E+02  3.266674969E+02  3.906833841E+02  1.250000000E+02  0.00000E+00  9.000E+00
      21     1     1     2   502   511 -1.124972068E+01 -1.927167230E+00 -4.421825457E+01  4.566754018E+01  4.768371582E-07  0.00000E+00  9.000E+00
#rwgt            1           1   3.5339267753277545E-002           8      254138           0
</event>
<event>
      5   9999  3.79277E-02  2.52221E+01 -1.00000E+00  1.58464E-01
      21    -1     0     0   512   501  0.000000000E+00  0.000000000E+00  9.623543245E+02  9.623543245E+02  0.000000000E+00  0.00000E+00  9.000E+00
      21    -1     0     0   501   502  0.000000000E+00  0.000000000E+00 -1.266436561E+03  1.266436561E+03  0.000000000E+00  0.00000E+00  9.000E+00
      25     1     1     2     0     0 -2.092451901E+02 -1.112426736E+01 -2.645780318E+02  3.599080908E+02  1.250000000E+02  0.00000E+00  9.000E+00
      25     1     1     2     0     0  2.275546698E+02  2.847117193E+01 -9.361399631E+02  9.718923634E+02  1.250000000E+02  0.00000E+00  9.000E+00
      21     1     1     2   512   502 -1.830947972E+01 -1.734690457E+01  8.966357581E+02  8.969904318E+02  1.868812365E-05  0.00000E+00  9.000E+00
#rwgt            1           1   4.4428681042263801E-002           8      254306           0
</event>
<event>
      5   9999  3.79277E-02  3.88271E+01 -1.00000E+00  1.45646E-01
      21    -1     0     0   502   511  0.000000000E+00  0.000000000E+00  9.938659923E+01  9.938659923E+01  0.000000000E+00  0.00000E+00  9.000E+00
      21    -1     0     0   501   502  0.000000000E+00  0.000000000E+00 -9.243192413E+02  9.243192413E+02  0.000000000E+00  0.00000E+00  9.000E+00
      25     1     1     2     0     0  9.549302375E+01 -5.738571770E+01 -4.699228671E+02  4.988632470E+02  1.250000000E+02  0.00000E+00  9.000E+00
      25     1     1     2     0     0 -6.198432568E+01  7.699986222E+01 -4.199555357E+02  4.491755641E+02  1.250000000E+02  0.00000E+00  9.000E+00
      21     1     1     2   501   511 -3.350869807E+01 -1.961414452E+01  6.494576072E+01  7.566702946E+01  2.861022949E-06  0.00000E+00  9.000E+00
#rwgt            1           1   2.4142200156260764E-002           8      254475           0
</event>
<event>
      5   9999  3.79277E-02  4.94609E+01 -1.00000E+00  1.39345E-01
      21    -1     0     0   502   501  0.000000000E+00  0.000000000E+00  2.537021117E+02  2.537021117E+02  0.000000000E+00  0.00000E+00  9.000E+00
      21    -1     0     0   512   502  0.000000000E+00  0.000000000E+00 -7.079706351E+02  7.079706351E+02  0.000000000E+00  0.00000E+00  9.000E+00
      25     1     1     2     0     0  3.165892997E+02  1.582297126E+02 -1.010501608E+01  3.754897308E+02  1.250000000E+02  0.00000E+00  9.000E+00
      25     1     1     2     0     0 -2.792556945E+02 -1.257862004E+02 -4.060326631E+02  5.237303071E+02  1.250000000E+02  0.00000E+00  9.000E+00
      21     1     1     2   512   501 -3.733360519E+01 -3.244351219E+01 -3.813084430E+01  6.245270888E+01  6.743495762E-07  0.00000E+00  9.000E+00
#rwgt            1           1   5.9661913350989693E-002           8      254564           0
</event>
<event>
      5   9999  3.79277E-02  1.16031E+02 -1.00000E+00  1.20992E-01
      21    -1     0     0   511   501  0.000000000E+00  0.000000000E+00  8.168114058E+02  8.168114058E+02  0.000000000E+00  0.00000E+00  9.000E+00
      21    -1     0     0   501   502  0.000000000E+00  0.000000000E+00 -1.852304525E+02  1.852304525E+02  0.000000000E+00  0.00000E+00  9.000E+00
      25     1     1     2     0     0  1.688826328E+02 -1.735443404E+02  1.482245500E+02  3.102168580E+02  1.250000000E+02  0.00000E+00  9.000E+00
      25     1     1     2     0     0 -2.189900466E+02  2.781984716E+02  3.326763090E+02  5.016468446E+02  1.250000000E+02  0.00000E+00  9.000E+00
      21     1     1     2   511   502  5.010741374E+01 -1.046541312E+02  1.506800943E+02  1.901781557E+02  3.303624740E-06  0.00000E+00  9.000E+00
#rwgt            1           1   5.2109248054116823E-003           8      254691           0
</event>
<event>
      5   9999  3.79277E-02  1.32253E+02 -1.00000E+00  1.18603E-01
      21    -1     0     0   512   501  0.000000000E+00  0.000000000E+00  5.231150201E+02  5.231150201E+02  0.000000000E+00  0.00000E+00  9.000E+00
      21    -1     0     0   501   502  0.000000000E+00  0.000000000E+00 -5.224977946E+02  5.224977946E+02  0.000000000E+00  0.00000E+00  9.000E+00
      25     1     1     2     0     0  1.110802116E+02  1.052843219E+02 -1.878118974E+02  2.726204516E+02  1.250000000E+02  0.00000E+00  9.000E+00
      25     1     1     2     0     0 -1.997441366E+02 -7.154263826E+00 -2.329052206E+02  3.313891148E+02  1.250000000E+02  0.00000E+00  9.000E+00
      21     1     1     2   512   502  8.866392500E+01 -9.813005802E+01  4.213343436E+02  4.416032483E+02  0.000000000E+00  0.00000E+00  9.000E+00
#rwgt            1           1   2.3711086207516534E-002           8      254815           0
</event>
<event>
      5   9999  3.79277E-02  1.42678E+02 -1.00000E+00  1.17261E-01
      21    -1     0     0   502   511  0.000000000E+00  0.000000000E+00  2.676093557E+02  2.676093557E+02  0.000000000E+00  0.00000E+00  9.000E+00
      21    -1     0     0   501   502  0.000000000E+00  0.000000000E+00 -6.542865578E+02  6.542865578E+02  0.000000000E+00  0.00000E+00  9.000E+00
      25     1     1     2     0     0 -1.099770957E+02  2.734802809E+02 -2.228186675E+02  3.900763825E+02  1.250000000E+02  0.00000E+00  9.000E+00
      25     1     1     2     0     0 -3.606806546E+00 -1.871332611E+02 -2.718140870E+02  3.529019189E+02  1.250000000E+02  0.00000E+00  9.000E+00
      21     1     1     2   501   511  1.135839022E+02 -8.634701977E+01  1.079555523E+02  1.789176122E+02  2.336015456E-06  0.00000E+00  9.000E+00
#rwgt            1           1   1.9000062226338287E-002           8      254915           0
</event>
<event>
      5   9999  3.79277E-02  6.02485E+01 -1.00000E+00  1.34608E-01
      21    -1     0     0   502   501  0.000000000E+00  0.000000000E+00  3.611184752E+02  3.611184752E+02  0.000000000E+00  0.00000E+00  9.000E+00
      21    -1     0     0   501   512  0.000000000E+00  0.000000000E+00 -2.121262500E+02  2.121262500E+02  0.000000000E+00  0.00000E+00  9.000E+00
      25     1     1     2     0     0 -1.932255261E+02  4.916245623E+01 -4.176456619E+01  2.390027825E+02  1.250000000E+02  0.00000E+00  9.000E+00
      25     1     1     2     0     0  1.624356177E+02  2.624234231E+00  1.805025587E+02  2.731270587E+02  1.250000000E+02  0.00000E+00  9.000E+00
      21     1     1     2   502   512  3.078990836E+01 -5.178669046E+01  1.025423268E+01  6.111488406E+01  5.196212463E-07  0.00000E+00  9.000E+00
#rwgt            1           1   4.0626948957385930E-002           8      254979           0
</event>
<event>
      5   9999  3.79277E-02  5.34777E+01 -1.00000E+00  1.37430E-01
      21    -1     0     0   502   501  0.000000000E+00  0.000000000E+00  2.472312133E+02  2.472312133E+02  0.000000000E+00  0.00000E+00  9.000E+00
       2    -1     0     0   501     0  0.000000000E+00  0.000000000E+00 -2.937483871E+02  2.937483871E+02  0.000000000E+00  0.00000E+00  9.000E+00
      25     1     1     2     0     0  1.841531529E+02  7.856543384E+01  9.211412908E+01  2.533671721E+02  1.250000000E+02  0.00000E+00  9.000E+00
      25     1     1     2     0     0 -1.466739458E+02 -4.041870769E+01 -9.515836050E+01  2.186939228E+02  1.250000000E+02  0.00000E+00  9.000E+00
       2     1     1     2   502     0 -3.747920707E+01 -3.814672615E+01 -4.347294246E+01  6.891850553E+01  4.768371582E-07  0.00000E+00  9.000E+00
#rwgt            1           1   4.0537346328219467E-002           8      255088           0
</event>
<event>
      5   9999  3.79277E-02  3.59081E+01 -1.00000E+00  1.47808E-01
      21    -1     0     0   502   511  0.000000000E+00  0.000000000E+00  5.943637941E+02  5.943637941E+02  0.000000000E+00  0.00000E+00  9.000E+00
      21    -1     0     0   501   502  0.000000000E+00  0.000000000E+00 -7.263798111E+02  7.263798111E+02  0.000000000E+00  0.00000E+00  9.000E+00
      25     1     1     2     0     0  6.318412264E+01  4.664440777E+01 -6.154315920E+02  6.328893889E+02  1.250000000E+02  0.00000E+00  9.000E+00
      25     1     1     2     0     0 -3.174773347E+01 -2.929093986E+01 -5.859736508E+01  1.446531332E+02  1.250000000E+02  0.00000E+00  9.000E+00
      21     1     1     2   501   511 -3.143638917E+01 -1.735346791E+01  5.420129401E+02  5.432010831E+02  1.078959322E-05  0.00000E+00  9.000E+00
#rwgt            1           1   4.8017937736468404E-002           8      255184           0
</event>
<event>
      5   9999  3.79277E-02  4.98205E+01 -1.00000E+00  1.39165E-01
      21    -1     0     0   512   501  0.000000000E+00  0.000000000E+00  4.001351247E+02  4.001351247E+02  0.000000000E+00  0.00000E+00  9.000E+00
      21    -1     0     0   501   502  0.000000000E+00  0.000000000E+00 -4.518672082E+02  4.518672082E+02  0.000000000E+00  0.00000E+00  9.000E+00
      25     1     1     2     0     0 -4.259812670E+01  1.277969977E+02  2.682697621E+02  3.251773951E+02  1.250000000E+02  0.00000E+00  9.000E+00
      25     1     1     2     0     0  3.212982655E+01 -1.765052707E+02 -3.863019104E+02  4.438925572E+02  1.250000000E+02  0.00000E+00  9.000E+00
      21     1     1     2   512   502  1.046830016E+01  4.870827297E+01  6.630006489E+01  8.293238070E+01  9.536743164E-07  0.00000E+00  9.000E+00
#rwgt            1           1   3.4428954364764376E-002           8      255322           0
</event>
<event>
      5   9999  3.79277E-02  3.33623E+01 -1.00000E+00  1.49903E-01
      21    -1     0     0   502   501  0.000000000E+00  0.000000000E+00  5.530996707E+02  5.530996707E+02  0.000000000E+00  0.00000E+00  9.000E+00
      21    -1     0     0   511   502  0.000000000E+00  0.000000000E+00 -1.602197051E+02  1.602197051E+02  0.000000000E+00  0.00000E+00  9.000E+00
      25     1     1     2     0     0 -8.403754591E+01 -2.098857726E+02  1.194474828E+02  2.846173709E+02  1.250000000E+02  0.00000E+00  9.000E+00
      25     1     1     2     0     0  5.127255635E+01  2.036011660E+02  2.993781444E+02  3.864383304E+02  1.250000000E+02  0.00000E+00  9.000E+00
      21     1     1     2   511   501  3.276498956E+01  6.284606545E+00 -2.594566167E+01  4.226367447E+01  3.371747881E-07  0.00000E+00  9.000E+00
#rwgt            1           1   3.4241410732347634E-002           8      255456           0
</event>
<event>
      5   9999  3.79277E-02  1.39832E+01 -1.00000E+00  1.80304E-01
      21    -1     0     0   502   501  0.000000000E+00  0.000000000E+00  3.233748612E+02  3.233748612E+02  0.000000000E+00  0.00000E+00  9.000E+00
      21    -1     0     0   512   502  0.000000000E+00  0.000000000E+00 -2.394044122E+02  2.394044122E+02  0.000000000E+00  0.00000E+00  9.000E+00
      25     1     1     2     0     0  4.334613824E+01 -2.026188674E+02  1.765214765E+02  2.995298396E+02  1.250000000E+02  0.00000E+00  9.000E+00
      25     1     1     2     0     0 -4.673826356E+01  1.890533360E+02 -9.264376904E+01  2.492659164E+02  1.250000000E+02  0.00000E+00  9.000E+00
      21     1     1     2   512   501  3.392125317E+00  1.356553145E+01  9.274160443E-02  1.398351739E+01  3.368376299E-07  0.00000E+00  9.000E+00
#rwgt            1           1   4.0039128094196713E-002           8      255660           0
</event>
<event>
      5   9999  3.79277E-02  3.79227E+01 -1.00000E+00  1.46291E-01
      21    -1     0     0   511   501  0.000000000E+00  0.000000000E+00  8.934317203E+01  8.934317203E+01  0.000000000E+00  0.00000E+00  9.000E+00
      21    -1     0     0   501   502  0.000000000E+00  0.000000000E+00 -4.217130344E+02  4.217130344E+02  0.000000000E+00  0.00000E+00  9.000E+00
      25     1     1     2     0     0 -6.852643781E+01 -7.125809051E+01 -1.483748783E+02  2.177468545E+02  1.250000000E+02  0.00000E+00  9.000E+00
      25     1     1     2     0     0  8.950807146E+01  1.028476541E+02 -1.743271393E+02  2.541737325E+02  1.250000000E+02  0.00000E+00  9.000E+00
      21     1     1     2   511   502 -2.098163365E+01 -3.158956359E+01 -9.667844699E+00  3.913561932E+01  9.757700887E-07  0.00000E+00  9.000E+00
#rwgt            1           1   3.8883173982147398E-002           8      255848           0
</event>
<event>
      5   9999  3.79277E-02  1.27040E+01 -1.00000E+00  1.84462E-01
      21    -1     0     0   502   501  0.000000000E+00  0.000000000E+00  2.097943025E+02  2.097943025E+02  0.000000000E+00  0.00000E+00  9.000E+00
       2    -1     0     0   501     0  0.000000000E+00  0.000000000E+00 -2.408565468E+03  2.408565468E+03  0.000000000E+00  0.00000E+00  9.000E+00
      25     1     1     2     0     0 -2.178155421E+02 -6.731343949E+01 -4.041055166E+01  2.631211170E+02  1.250000000E+02  0.00000E+00  9.000E+00
      25     1     1     2     0     0  2.101232721E+02  7.742389875E+01 -6.864857185E+01  2.654879960E+02  1.250000000E+02  0.00000E+00  9.000E+00
       2     1     1     2   502     0  7.692269986E+00 -1.011045926E+01 -2.089712042E+03  2.089750658E+03  3.051757812E-05  0.00000E+00  9.000E+00
#rwgt            1           1   5.1803036479201967E-002           8      255979           0
</event>
<event>
      5   9999  3.79277E-02  1.32053E+01 -1.00000E+00  1.82761E-01
      21    -1     0     0   502   501  0.000000000E+00  0.000000000E+00  1.240511145E+02  1.240511145E+02  0.000000000E+00  0.00000E+00  9.000E+00
      21    -1     0     0   501   511  0.000000000E+00  0.000000000E+00 -7.029210016E+02  7.029210016E+02  0.000000000E+00  0.00000E+00  9.000E+00
      25     1     1     2     0     0  1.063281227E+02 -1.423864930E+02 -3.504281314E+01  2.200740371E+02  1.250000000E+02  0.00000E+00  9.000E+00
      25     1     1     2     0     0 -1.189614837E+02  1.462308934E+02 -3.777015350E+02  4.402485188E+02  1.250000000E+02  0.00000E+00  9.000E+00
      21     1     1     2   502   511  1.263336098E+01 -3.844400390E+00 -1.661255389E+02  1.666495602E+02  3.303624740E-06  0.00000E+00  9.000E+00
#rwgt            1           1   3.7096108330720752E-002           8      256222           0
</event>
<event>
      5   9999  3.79277E-02  8.38903E+00 -1.00000E+00  2.05010E-01
      21    -1     0     0   502   501  0.000000000E+00  0.000000000E+00  7.272655729E+02  7.272655729E+02  0.000000000E+00  0.00000E+00  9.000E+00
      21    -1     0     0   512   502  0.000000000E+00  0.000000000E+00 -1.544591204E+02  1.544591204E+02  0.000000000E+00  0.00000E+00  9.000E+00
      25     1     1     2     0     0 -8.172772475E+01 -4.209365975E+01  4.906051425E+02  5.145577742E+02  1.250000000E+02  0.00000E+00  9.000E+00
      25     1     1     2     0     0  8.464829445E+01  4.995788736E+01  1.963757478E+02  2.526847019E+02  1.250000000E+02  0.00000E+00  9.000E+00
      21     1     1     2   512   501 -2.920569695E+00 -7.864227608E+00 -1.141744378E+02  1.144822172E+02  2.697398305E-06  0.00000E+00  9.000E+00
#rwgt            1           1   4.4354701859911458E-002           8      256442           0
</event>
<event>
      5   9999  3.79277E-02  9.77935E+01 -1.00000E+00  1.24265E-01
      21    -1     0     0   502   511  0.000000000E+00  0.000000000E+00  7.823014805E+01  7.823014805E+01  0.000000000E+00  0.00000E+00  9.000E+00
      21    -1     0     0   501   502  0.000000000E+00  0.000000000E+00 -9.844565254E+02  9.844565254E+02  0.000000000E+00  0.00000E+00  9.000E+00
      25     1     1     2     0     0 -2.999237553E+01  1.161707177E+02 -6.382387627E+02  6.613387153E+02  1.250000000E+02  0.00000E+00  9.000E+00
      25     1     1     2     0     0  9.110212818E+01 -3.982177120E+01 -2.574746406E+02  3.029910259E+02  1.250000000E+02  0.00000E+00  9.000E+00
      21     1     1     2   501   511 -6.110975265E+01 -7.634894647E+01 -1.051297412E+01  9.835693225E+01  1.425535767E-06  0.00000E+00  9.000E+00
#rwgt            1           1   3.7502806578160033E-002           8      256773           0
</event>
<event>
      5   9999  3.79277E-02  2.50789E+01 -1.00000E+00  1.58649E-01
       2    -1     0     0   502     0  0.000000000E+00  0.000000000E+00  5.230440206E+02  5.230440206E+02  0.000000000E+00  0.00000E+00  9.000E+00
      21    -1     0     0   501   502  0.000000000E+00  0.000000000E+00 -6.380667934E+02  6.380667934E+02  0.000000000E+00  0.00000E+00  9.000E+00
      25     1     1     2     0     0  1.443985227E+02 -1.490368090E+01 -4.694811526E+02  5.070607515E+02  1.250000000E+02  0.00000E+00  9.000E+00
      25     1     1     2     0     0 -1.623464846E+02  3.241995348E+01 -7.743878844E+01  2.214253834E+02  1.250000000E+02  0.00000E+00  9.000E+00
       2     1     1     2   501     0  1.794796191E+01 -1.751627258E+01  4.318971682E+02  4.326246792E+02  0.000000000E+00  0.00000E+00  9.000E+00
#rwgt            1           1   3.6106339139357277E-002           8      256859           0
</event>
<event>
      5   9999  3.79277E-02  7.95728E+00 -1.00000E+00  2.07975E-01
      21    -1     0     0   502   501  0.000000000E+00  0.000000000E+00  1.610603900E+02  1.610603900E+02  0.000000000E+00  0.00000E+00  9.000E+00
      21    -1     0     0   501   511  0.000000000E+00  0.000000000E+00 -4.690973812E+02  4.690973812E+02  0.000000000E+00  0.00000E+00  9.000E+00
      25     1     1     2     0     0 -3.633843297E+01  2.176984076E+02 -2.177668835E+02  3.343059885E+02  1.250000000E+02  0.00000E+00  9.000E+00
      25     1     1     2     0     0  2.896051984E+01 -2.147176933E+02 -5.035717563E+01  2.551533748E+02  1.250000000E+02  0.00000E+00  9.000E+00
      21     1     1     2   502   511  7.377913133E+00 -2.980714307E+00 -3.991293203E+01  4.069840787E+01  4.768371582E-07  0.00000E+00  9.000E+00
#rwgt            1           1   3.4000006361819143E-002           8      257049           0
</event>
<event>
      5   9999  3.79277E-02  4.19581E+02 -1.00000E+00  1.01065E-01
      21    -1     0     0   512   501  0.000000000E+00  0.000000000E+00  4.666144223E+02  4.666144223E+02  0.000000000E+00  0.00000E+00  9.000E+00
      21    -1     0     0   501   502  0.000000000E+00  0.000000000E+00 -8.464665141E+02  8.464665141E+02  0.000000000E+00  0.00000E+00  9.000E+00
      25     1     1     2     0     0  1.916496673E+01 -2.483970903E+01  1.142192024E+01  1.293822529E+02  1.250000000E+02  0.00000E+00  9.000E+00
      25     1     1     2     0     0 -4.112331665E+02  1.742747302E+02 -5.637802667E+02  7.300394427E+02  1.250000000E+02  0.00000E+00  9.000E+00
      21     1     1     2   512   502  3.920681998E+02 -1.494350212E+02  1.725062548E+02  4.536592408E+02  6.607249480E-06  0.00000E+00  9.000E+00
#rwgt            2          11   5.8809671259538903E-004           8      257560           0
</event>
<event>
      5   9999  3.79277E-02  3.04060E+01 -1.00000E+00  1.52635E-01
      21    -1     0     0   502   511  0.000000000E+00  0.000000000E+00  4.803953713E+01  4.803953713E+01  0.000000000E+00  0.00000E+00  9.000E+00
      21    -1     0     0   501   502  0.000000000E+00  0.000000000E+00 -1.611067681E+03  1.611067681E+03  0.000000000E+00  0.00000E+00  9.000E+00
      25     1     1     2     0     0  2.968066885E+01 -1.121785020E+02 -1.338698418E+03  1.349519697E+03  1.250000000E+02  0.00000E+00  9.000E+00
      25     1     1     2     0     0 -6.004126224E+01  1.105182960E+02 -2.129697062E+02  2.771287475E+02  1.250000000E+02  0.00000E+00  9.000E+00
      21     1     1     2   501   511  3.036059339E+01  1.660205972E+00 -1.136001919E+01  3.245877310E+01  7.152557373E-07  0.00000E+00  9.000E+00
#rwgt            1           1   5.4317743502093820E-002           8      257625           0
</event>
<event>
      5   9999  3.79277E-02  2.11875E+01 -1.00000E+00  1.64328E-01
      21    -1     0     0   502   501  0.000000000E+00  0.000000000E+00  7.998574432E+01  7.998574432E+01  0.000000000E+00  0.00000E+00  9.000E+00
      21    -1     0     0   501   512  0.000000000E+00  0.000000000E+00 -8.354157200E+02  8.354157200E+02  0.000000000E+00  0.00000E+00  9.000E+00
      25     1     1     2     0     0 -1.165891078E+02 -6.971372338E+01 -8.776237756E+01  2.044021971E+02  1.250000000E+02  0.00000E+00  9.000E+00
      25     1     1     2     0     0  1.360741228E+02  7.803499308E+01 -4.546155710E+02  4.968963116E+02  1.250000000E+02  0.00000E+00  9.000E+00
      21     1     1     2   502   512 -1.948501504E+01 -8.321269698E+00 -2.130520271E+02  2.141029556E+02  2.697398305E-06  0.00000E+00  9.000E+00
#rwgt            1           1   3.5884526480032077E-002           8      257824           0
</event>
<event>
      5   9999  3.79277E-02  2.38349E+01 -1.00000E+00  1.60319E-01
      21    -1     0     0   502   511  0.000000000E+00  0.000000000E+00  5.872808675E+02  5.872808675E+02  0.000000000E+00  0.00000E+00  9.000E+00
      21    -1     0     0   501   502  0.000000000E+00  0.000000000E+00 -2.340550185E+02  2.340550185E+02  0.000000000E+00  0.00000E+00  9.000E+00
      25     1     1     2     0     0 -2.055152544E+02 -5.175576502E+01 -1.140667680E+02  2.712036256E+02  1.250000000E+02  0.00000E+00  9.000E+00
      25     1     1     2     0     0  2.260862621E+02  6.379462230E+01  4.361163799E+02  5.108886851E+02  1.250000000E+02  0.00000E+00  9.000E+00
      21     1     1     2   501   511 -2.057100773E+01 -1.203885729E+01  3.117623706E+01  3.924357528E+01  5.840038640E-07  0.00000E+00  9.000E+00
#rwgt            1           1   4.3335449841399865E-002           8      258117           0
</event>
<event>
      5   9999  3.79277E-02  4.45666E+01 -1.00000E+00  1.41987E-01
      21    -1     0     0   502   501  0.000000000E+00  0.000000000E+00  8.607614861E+01  8.607614861E+01  0.000000000E+00  0.00000E+00  9.000E+00
      21    -1     0     0   512   502  0.000000000E+00  0.000000000E+00 -1.479819069E+03  1.479819069E+03  0.000000000E+00  0.00000E+00  9.000E+00
      25     1     1     2     0     0 -9.459041490E+01  1.062908071E+01 -7.462377174E+02  7.625982264E+02  1.250000000E+02  0.00000E+00  9.000E+00
      25     1     1     2     0     0  1.132217586E+02  2.985612844E+01 -1.800370473E+01  1.722198839E+02  1.250000000E+02  0.00000E+00  9.000E+00
      21     1     1     2   512   501 -1.863134372E+01 -4.048520914E+01 -6.295014983E+02  6.310771074E+02  1.078959322E-05  0.00000E+00  9.000E+00
#rwgt            1           1   3.1116823791192752E-002           8      258326           0
</event>
<event>
      5   9999  3.79277E-02  9.74079E+00 -1.00000E+00  1.97085E-01
      21    -1     0     0   502   501  0.000000000E+00  0.000000000E+00  1.492524756E+02  1.492524756E+02  0.000000000E+00  0.00000E+00  9.000E+00
      21    -1     0     0   501   511  0.000000000E+00  0.000000000E+00 -8.616012891E+02  8.616012891E+02  0.000000000E+00  0.00000E+00  9.000E+00
      25     1     1     2     0     0 -3.350744413E+01 -2.164138678E+02 -3.727920514E+02  4.500629118E+02  1.250000000E+02  0.00000E+00  9.000E+00
      25     1     1     2     0     0  2.489882800E+01  2.209718032E+02 -3.663470731E+01  2.577122256E+02  1.250000000E+02  0.00000E+00  9.000E+00
      21     1     1     2   502   511  8.608616138E+00 -4.557935402E+00 -3.029220548E+02  3.030786273E+02  3.814697266E-06  0.00000E+00  9.000E+00
#rwgt            1           1   3.6490586173695036E-002           8      258409           0
</event>
<event>
      5   9999  3.79277E-02  1.39223E+02 -1.00000E+00  1.17692E-01
      21    -1     0     0   502   501  0.000000000E+00  0.000000000E+00  8.508174883E+01  8.508174883E+01  0.000000000E+00  0.00000E+00  9.000E+00
      21    -1     0     0   501   512  0.000000000E+00  0.000000000E+00 -1.701701643E+03  1.701701643E+03  0.000000000E+00  0.00000E+00  9.000E+00
      25     1     1     2     0     0 -1.932809172E+02 -2.060928001E+02 -9.070197764E+02  9.581970726E+02  1.250000000E+02  0.00000E+00  9.000E+00
      25     1     1     2     0     0  1.402406366E+02  7.736927526E+01 -1.516468171E+02  2.535255372E+02  1.250000000E+02  0.00000E+00  9.000E+00
      21     1     1     2   502   512  5.304028064E+01  1.287235249E+02 -5.579533009E+02  5.750607822E+02  0.000000000E+00  0.00000E+00  9.000E+00
#rwgt            1           1   4.6354779373616664E-002           8      258591           0
</event>
<event>
      5   9999 -3.79277E-02  8.91778E+01 -1.00000E+00  1.26107E-01
      21    -1     0     0   502   511  0.000000000E+00  0.000000000E+00  1.038381113E+03  1.038381113E+03  0.000000000E+00  0.00000E+00  9.000E+00
      21    -1     0     0   501   502  0.000000000E+00  0.000000000E+00 -1.924307193E+02  1.924307193E+02  0.000000000E+00  0.00000E+00  9.000E+00
      25     1     1     2     0     0  1.110906895E+02  2.968731662E+02  1.679948937E+02  3.798974894E+02  1.250000000E+02  0.00000E+00  9.000E+00
      25     1     1     2     0     0 -1.517108667E+02 -3.762625767E+02  5.451030860E+02  6.909067144E+02  1.250000000E+02  0.00000E+00  9.000E+00
      21     1     1     2   501   511  4.062017712E+01  7.938941047E+01  1.328524141E+02  1.600076286E+02  2.697398305E-06  0.00000E+00  9.000E+00
#rwgt            1           1 -0.16661467042066835                8      258703           0
</event>
<event>
      5   9999  3.79277E-02  5.62800E+01 -1.00000E+00  1.36206E-01
      21    -1     0     0   502   501  0.000000000E+00  0.000000000E+00  6.220356589E+01  6.220356589E+01  0.000000000E+00  0.00000E+00  9.000E+00
      21    -1     0     0   512   502  0.000000000E+00  0.000000000E+00 -8.629604985E+02  8.629604985E+02  0.000000000E+00  0.00000E+00  9.000E+00
      25     1     1     2     0     0 -1.836387069E+01  1.235492958E+02 -1.321594625E+02  2.206644143E+02  1.250000000E+02  0.00000E+00  9.000E+00
      25     1     1     2     0     0 -1.799791479E+01 -8.059282326E+01 -3.461717644E+02  3.771989111E+02  1.250000000E+02  0.00000E+00  9.000E+00
      21     1     1     2   512   501  3.636178548E+01 -4.295647250E+01 -3.224257058E+02  3.273007390E+02  3.814697266E-06  0.00000E+00  9.000E+00
#rwgt            1           1   4.4431913160540723E-002           8      258812           0
</event>
<event>
      5   9999  3.79277E-02  3.27843E+01 -1.00000E+00  1.50410E-01
      21    -1     0     0   511   501  0.000000000E+00  0.000000000E+00  9.271691873E+02  9.271691873E+02  0.000000000E+00  0.00000E+00  9.000E+00
      21    -1     0     0   501   502  0.000000000E+00  0.000000000E+00 -3.866569084E+01  3.866569084E+01  0.000000000E+00  0.00000E+00  9.000E+00
      25     1     1     2     0     0 -7.150828041E+01 -6.007947718E+01  4.113874007E+02  4.399858761E+02  1.250000000E+02  0.00000E+00  9.000E+00
      25     1     1     2     0     0  1.035055098E+02  6.721981448E+01  3.170544213E+02  3.624643432E+02  1.250000000E+02  0.00000E+00  9.000E+00
      21     1     1     2   511   502 -3.199722940E+01 -7.140337297E+00  1.600616744E+02  1.633846588E+02  1.907348633E-06  0.00000E+00  9.000E+00
#rwgt            1           1   2.9600325945341985E-002           8      258942           0
</event>
<event>
      5   9999  3.79277E-02  1.73940E+01 -1.00000E+00  1.71532E-01
      21    -1     0     0   502   512  0.000000000E+00  0.000000000E+00  1.992115289E+01  1.992115289E+01  0.000000000E+00  0.00000E+00  9.000E+00
      21    -1     0     0   501   502  0.000000000E+00  0.000000000E+00 -2.712307510E+03  2.712307510E+03  0.000000000E+00  0.00000E+00  9.000E+00
      25     1     1     2     0     0 -9.142765053E+01 -1.356178652E+02 -1.035671509E+03  1.055931671E+03  1.250000000E+02  0.00000E+00  9.000E+00
      25     1     1     2     0     0  1.073940434E+02  1.425189502E+02 -1.629480288E+03  1.643981794E+03  1.250000000E+02  0.00000E+00  9.000E+00
      21     1     1     2   501   512 -1.596639287E+01 -6.901085023E+00 -2.723456022E+01  3.231519683E+01  6.743495762E-07  0.00000E+00  9.000E+00
#rwgt            1           1   6.2986337791788180E-002           8      259018           0
</event>
<event>
      5   9999  3.79277E-02  2.12084E+01 -1.00000E+00  1.64294E-01
      21    -1     0     0   502   511  0.000000000E+00  0.000000000E+00  4.187393774E+01  4.187393774E+01  0.000000000E+00  0.00000E+00  9.000E+00
      21    -1     0     0   501   502  0.000000000E+00  0.000000000E+00 -1.099987778E+03  1.099987778E+03  0.000000000E+00  0.00000E+00  9.000E+00
      25     1     1     2     0     0 -1.215108423E+02  5.951532712E+01 -7.064131535E+02  7.300352748E+02  1.250000000E+02  0.00000E+00  9.000E+00
      25     1     1     2     0     0  1.020219696E+02 -6.788066130E+01 -3.490107481E+02  3.904481640E+02  1.250000000E+02  0.00000E+00  9.000E+00
      21     1     1     2   501   511  1.948887268E+01  8.365334185E+00 -2.689939113E+00  2.137827745E+01  3.082776199E-07  0.00000E+00  9.000E+00
#rwgt            1           1   4.4722229459054963E-002           8      259199           0
</event>
<event>
      5   9999  3.79277E-02  9.27370E+01 -1.00000E+00  1.25319E-01
      21    -1     0     0   502   501  0.000000000E+00  0.000000000E+00  5.138887841E+02  5.138887841E+02  0.000000000E+00  0.00000E+00  9.000E+00
      21    -1     0     0   501   512  0.000000000E+00  0.000000000E+00 -1.180973231E+02  1.180973231E+02  0.000000000E+00  0.00000E+00  9.000E+00
      25     1     1     2     0     0  9.345330172E+01 -5.643176775E+01  2.214873753E+01  1.674324657E+02  1.250000000E+02  0.00000E+00  9.000E+00
      25     1     1     2     0     0 -5.714466402E+01 -2.890187968E+01  3.365378548E+02  3.646691089E+02  1.250000000E+02  0.00000E+00  9.000E+00
      21     1     1     2   502   512 -3.630863770E+01  8.533364743E+01  3.710486859E+01  9.988453248E+01  1.168007728E-06  0.00000E+00  9.000E+00
#rwgt            1           1   4.3984171301823277E-002           8      259487           0
</event>
<event>
      5   9999  3.79277E-02  5.79313E+01 -1.00000E+00  1.35523E-01
      21    -1     0     0   502   511  0.000000000E+00  0.000000000E+00  3.548100146E+02  3.548100146E+02  0.000000000E+00  0.00000E+00  9.000E+00
      21    -1     0     0   501   502  0.000000000E+00  0.000000000E+00 -1.274111083E+03  1.274111083E+03  0.000000000E+00  0.00000E+00  9.000E+00
      25     1     1     2     0     0 -1.303074110E+01  3.518289255E+01 -1.140113684E+03  1.147559083E+03  1.250000000E+02  0.00000E+00  9.000E+00
      25     1     1     2     0     0 -2.243009963E+01  1.062721427E+01 -9.583832423E+01  1.594554215E+02  1.250000000E+02  0.00000E+00  9.000E+00
      21     1     1     2   501   511  3.546084073E+01 -4.581010681E+01  3.166509398E+02  3.219065933E+02  6.607249480E-06  0.00000E+00  9.000E+00
#rwgt            1           1   4.2671571191264343E-002           8      259784           0
</event>
<event>
      5   9999  3.79277E-02  1.25441E+01 -1.00000E+00  1.85026E-01
       2    -1     0     0   502     0  0.000000000E+00  0.000000000E+00  1.393880853E+03  1.393880853E+03  0.000000000E+00  0.00000E+00  9.000E+00
      21    -1     0     0   501   502  0.000000000E+00  0.000000000E+00 -6.202844583E+01  6.202844583E+01  0.000000000E+00  0.00000E+00  9.000E+00
      25     1     1     2     0     0  4.553029433E+01 -1.724158895E+02  1.904236646E+02  2.892860499E+02  1.250000000E+02  0.00000E+00  9.000E+00
      25     1     1     2     0     0 -5.640519826E+01  1.786681725E+02  1.021258772E+03  1.045800335E+03  1.250000000E+02  0.00000E+00  9.000E+00
       2     1     1     2   501     0  1.087490393E+01 -6.252282952E+00  1.201699702E+02  1.208229131E+02  1.348699152E-06  0.00000E+00  9.000E+00
#rwgt            1           1   3.4700745035341062E-002           8      259862           0
</event>
<event>
      5   9999  3.79277E-02  2.01346E+02 -1.00000E+00  1.11542E-01
      21    -1     0     0   502   501  0.000000000E+00  0.000000000E+00  3.667977804E+02  3.667977804E+02  0.000000000E+00  0.00000E+00  9.000E+00
      21    -1     0     0   511   502  0.000000000E+00  0.000000000E+00 -3.803463093E+02  3.803463093E+02  0.000000000E+00  0.00000E+00  9.000E+00
      25     1     1     2     0     0 -9.161563806E+01 -2.293142316E+02  3.601490449E+01  2.791066378E+02  1.250000000E+02  0.00000E+00  9.000E+00
      25     1     1     2     0     0  9.840725904E+01  2.808303852E+01  1.228551881E+02  2.029557659E+02  1.250000000E+02  0.00000E+00  9.000E+00
      21     1     1     2   511   501 -6.791620978E+00  2.012311931E+02 -1.724186214E+02  2.650816859E+02  5.722045898E-06  0.00000E+00  9.000E+00
#rwgt            2          11   1.8211444655487864E-003           8      260119           0
</event>
<event>
      5   9999  3.79277E-02  8.19745E+01 -1.00000E+00  1.27839E-01
      21    -1     0     0   502   512  0.000000000E+00  0.000000000E+00  2.223788623E+02  2.223788623E+02  0.000000000E+00  0.00000E+00  9.000E+00
      21    -1     0     0   501   502  0.000000000E+00  0.000000000E+00 -5.944784347E+02  5.944784347E+02  0.000000000E+00  0.00000E+00  9.000E+00
      25     1     1     2     0     0  1.448221454E+02 -1.333659271E+02 -3.582511582E+02  4.274679131E+02  1.250000000E+02  0.00000E+00  9.000E+00
      25     1     1     2     0     0 -1.298607679E+02  5.276834531E+01 -1.432503893E+02  2.362075176E+02  1.250000000E+02  0.00000E+00  9.000E+00
      21     1     1     2   501   512 -1.496137753E+01  8.059758180E+01  1.294019752E+02  1.531818664E+02  1.907348633E-06  0.00000E+00  9.000E+00
#rwgt            1           1   3.3288548981079885E-002           8      260154           0
</event>
<event>
      5   9999  3.79277E-02  4.59172E+01 -1.00000E+00  1.41220E-01
      21    -1     0     0   502   501  0.000000000E+00  0.000000000E+00  7.781126667E+01  7.781126667E+01  0.000000000E+00  0.00000E+00  9.000E+00
      21    -1     0     0   501   511  0.000000000E+00  0.000000000E+00 -5.291305614E+02  5.291305614E+02  0.000000000E+00  0.00000E+00  9.000E+00
      25     1     1     2     0     0 -7.830129234E+01  6.832501669E+01 -1.831019089E+02  2.448483394E+02  1.250000000E+02  0.00000E+00  9.000E+00
      25     1     1     2     0     0  1.170920203E+02 -9.289460926E+01 -1.949544265E+02  2.756305100E+02  1.250000000E+02  0.00000E+00  9.000E+00
      21     1     1     2   502   511 -3.879072795E+01  2.456959257E+01 -7.326295939E+01  8.646297862E+01  1.907348633E-06  0.00000E+00  9.000E+00
#rwgt            1           1   3.9317135562941176E-002           8      260233           0
</event>
<event>
      5   9999  3.79277E-02  6.49686E+01 -1.00000E+00  1.32883E-01
      21    -1     0     0   502   501  0.000000000E+00  0.000000000E+00  2.132354745E+03  2.132354745E+03  0.000000000E+00  0.00000E+00  9.000E+00
      21    -1     0     0   501   512  0.000000000E+00  0.000000000E+00 -4.811643577E+01  4.811643577E+01  0.000000000E+00  0.00000E+00  9.000E+00
      25     1     1     2     0     0  1.671336347E+02  5.528396464E+01  4.684772223E+02  5.158351252E+02  1.250000000E+02  0.00000E+00  9.000E+00
      25     1     1     2     0     0 -1.504523803E+02  7.506600815E+00  1.576751349E+03  1.588855590E+03  1.250000000E+02  0.00000E+00  9.000E+00
      21     1     1     2   502   512 -1.668125433E+01 -6.279056546E+01  3.900973763E+01  7.578046573E+01  1.261592536E-06  0.00000E+00  9.000E+00
#rwgt            1           1  0.11467135931236945                8      260348           0
</event>
<event>
      5   9999  3.79277E-02  4.64613E+01 -1.00000E+00  1.40919E-01
      21    -1     0     0   502   511  0.000000000E+00  0.000000000E+00  8.733309442E+02  8.733309442E+02  0.000000000E+00  0.00000E+00  9.000E+00
      21    -1     0     0   501   502  0.000000000E+00  0.000000000E+00 -6.995661420E+01  6.995661420E+01  0.000000000E+00  0.00000E+00  9.000E+00
      25     1     1     2     0     0 -8.753214135E+01 -1.335950014E+02  2.604078767E+02  3.300708445E+02  1.250000000E+02  0.00000E+00  9.000E+00
      25     1     1     2     0     0  4.206279702E+01  1.240458367E+02  2.110813129E+02  2.780952520E+02  1.250000000E+02  0.00000E+00  9.000E+00
      21     1     1     2   501   511  4.546934433E+01  9.549164622E+00  3.318851404E+02  3.351214619E+02  5.394796609E-06  0.00000E+00  9.000E+00
#rwgt            1           1   3.5710701873585993E-002           8      260467           0
</event>
<event>
      5   9999  3.79277E-02  3.44141E+01 -1.00000E+00  1.49011E-01
      21    -1     0     0   512   501  0.000000000E+00  0.000000000E+00  1.606017218E+03  1.606017218E+03  0.000000000E+00  0.00000E+00  9.000E+00
      21    -1     0     0   501   502  0.000000000E+00  0.000000000E+00 -4.438954184E+01  4.438954184E+01  0.000000000E+00  0.00000E+00  9.000E+00
      25     1     1     2     0     0  8.229425549E+01  7.065188652E+01  1.043689728E+03  1.056729522E+03  1.250000000E+02  0.00000E+00  9.000E+00
      25     1     1     2     0     0 -4.879247129E+01 -7.852361414E+01  1.256942847E+02  1.999267777E+02  1.250000000E+02  0.00000E+00  9.000E+00
      21     1     1     2   512   502 -3.350178420E+01  7.871727621E+00  3.922436636E+02  3.937504607E+02  5.394796609E-06  0.00000E+00  9.000E+00
#rwgt            1           1   5.2581894054637618E-002           8      260666           0
</event>
<event>
      5   9999  3.79277E-02  8.83256E+01 -1.00000E+00  1.26302E-01
      21    -1     0     0   502   501  0.000000000E+00  0.000000000E+00  1.161335565E+03  1.161335565E+03  0.000000000E+00  0.00000E+00  9.000E+00
       5    -1     0     0   501     0  0.000000000E+00  0.000000000E+00 -4.896566199E+02  4.896566199E+02  0.000000000E+00  0.00000E+00  9.000E+00
      25     1     1     2     0     0  8.685027627E+01  1.864312228E+02  5.076501260E+02  5.618124436E+02  1.250000000E+02  0.00000E+00  9.000E+00
      25     1     1     2     0     0  1.469380035E+00 -1.874569249E+02  6.017949802E+02  6.425919825E+02  1.250000000E+02  0.00000E+00  9.000E+00
       5     1     1     2   502     0 -8.831965630E+01  1.025702157E+00 -4.377661616E+02  4.465877584E+02  0.000000000E+00  0.00000E+00  9.000E+00
#rwgt            1           1   3.8962819908700881E-002           8      260875           0
</event>
<event>
      5   9999  3.79277E-02  7.08439E+01 -1.00000E+00  1.30958E-01
      21    -1     0     0   502   511  0.000000000E+00  0.000000000E+00  5.127086617E+02  5.127086617E+02  0.000000000E+00  0.00000E+00  9.000E+00
      21    -1     0     0   501   502  0.000000000E+00  0.000000000E+00 -2.970150056E+02  2.970150056E+02  0.000000000E+00  0.00000E+00  9.000E+00
      25     1     1     2     0     0 -1.472605212E+02 -1.243111416E+02  2.393456316E+02  3.317382287E+02  1.250000000E+02  0.00000E+00  9.000E+00
      25     1     1     2     0     0  7.818096660E+01  1.085989846E+02 -2.100011536E+02  2.786242766E+02  1.250000000E+02  0.00000E+00  9.000E+00
      21     1     1     2   501   511  6.907955457E+01  1.571215699E+01  1.863491781E+02  1.993611620E+02  2.697398305E-06  0.00000E+00  9.000E+00
#rwgt            1           1   5.2546902583441815E-002           8      260940           0
</event>
<event>
      5   9999  3.79277E-02  1.08126E+01 -1.00000E+00  1.91915E-01
      21    -1     0     0   502   501  0.000000000E+00  0.000000000E+00  2.619397947E+03  2.619397947E+03  0.000000000E+00  0.00000E+00  9.000E+00
      21    -1     0     0   512   502  0.000000000E+00  0.000000000E+00 -4.002604569E+01  4.002604569E+01  0.000000000E+00  0.00000E+00  9.000E+00
      25     1     1     2     0     0 -9.841628736E+01 -8.298839042E+00  2.091122734E+03  2.097182377E+03  1.250000000E+02  0.00000E+00  9.000E+00
      25     1     1     2     0     0  9.030622421E+01  1.147672267E+00  5.127621449E+02  5.354498562E+02  1.250000000E+02  0.00000E+00  9.000E+00
      21     1     1     2   512   501  8.110063149E+00  7.151166775E+00 -2.451297721E+01  2.679175922E+01  3.303624740E-06  0.00000E+00  9.000E+00
#rwgt            1           1   5.2635987633499921E-002           8      261073           0
</event>
<event>
      5   9999  3.79277E-02  6.20950E+01 -1.00000E+00  1.33912E-01
      21    -1     0     0   502   501  0.000000000E+00  0.000000000E+00  3.660236099E+02  3.660236099E+02  0.000000000E+00  0.00000E+00  9.000E+00
      21    -1     0     0   501   511  0.000000000E+00  0.000000000E+00 -1.362888090E+02  1.362888090E+02  0.000000000E+00  0.00000E+00  9.000E+00
      25     1     1     2     0     0  9.000131876E+01 -6.103504025E+00  1.787854157E+02  2.360650652E+02  1.250000000E+02  0.00000E+00  9.000E+00
      25     1     1     2     0     0 -1.481810503E+02  2.780382051E+01  5.669476338E+01  2.038871558E+02  1.250000000E+02  0.00000E+00  9.000E+00
      21     1     1     2   502   511  5.817973158E+01 -2.170031648E+01 -5.745378160E+00  6.236019782E+01  4.693274423E-07  0.00000E+00  9.000E+00
#rwgt            1           1   5.0697220945542153E-002           8      261332           0
</event>
<event>
      5   9999  3.79277E-02  1.16216E+02 -1.00000E+00  1.20962E-01
      21    -1     0     0   512   501  0.000000000E+00  0.000000000E+00  1.089703722E+03  1.089703722E+03  0.000000000E+00  0.00000E+00  9.000E+00
      21    -1     0     0   501   502  0.000000000E+00  0.000000000E+00 -7.295131187E+01  7.295131187E+01  0.000000000E+00  0.00000E+00  9.000E+00
      25     1     1     2     0     0  1.878770127E+01  1.785679456E+02  2.347827732E+02  3.209165616E+02  1.250000000E+02  0.00000E+00  9.000E+00
      25     1     1     2     0     0 -1.067455025E+02 -1.026106409E+02  4.474491645E+02  4.876056816E+02  1.250000000E+02  0.00000E+00  9.000E+00
      21     1     1     2   512   502  8.795780128E+01 -7.595730472E+01  3.345204723E+02  3.541327906E+02  6.607249480E-06  0.00000E+00  9.000E+00
#rwgt            1           1   2.8683543969087802E-002           8      261521           0
</event>
<event>
      5   9999  3.79277E-02  5.06597E+01 -1.00000E+00  1.38752E-01
      21    -1     0     0   502   501  0.000000000E+00  0.000000000E+00  4.387757021E+02  4.387757021E+02  0.000000000E+00  0.00000E+00  9.000E+00
       2    -1     0     0   501     0  0.000000000E+00  0.000000000E+00 -9.403134847E+02  9.403134847E+02  0.000000000E+00  0.00000E+00  9.000E+00
      25     1     1     2     0     0  2.203936253E+02  2.188922329E+02  3.551423213E+01  3.367096975E+02  1.250000000E+02  0.00000E+00  9.000E+00
      25     1     1     2     0     0 -2.689222598E+02 -2.043535719E+02  1.228607591E+02  3.805250718E+02  1.250000000E+02  0.00000E+00  9.000E+00
       2     1     1     2   502     0  4.852863455E+01 -1.453866101E+01 -6.599127738E+02  6.618544176E+02  0.000000000E+00  0.00000E+00  9.000E+00
#rwgt            1           1   2.8096627931005699E-002           8      261599           0
</event>
<event>
      5   9999  3.79277E-02  1.11370E+01 -1.00000E+00  1.90502E-01
      21    -1     0     0   502   501  0.000000000E+00  0.000000000E+00  6.196610595E+01  6.196610595E+01  0.000000000E+00  0.00000E+00  9.000E+00
      21    -1     0     0   501   511  0.000000000E+00  0.000000000E+00 -5.918599928E+02  5.918599928E+02  0.000000000E+00  0.00000E+00  9.000E+00
      25     1     1     2     0     0  4.245206542E+01 -1.254732157E+02 -2.567904350E+02  3.148206366E+02  1.250000000E+02  0.00000E+00  9.000E+00
      25     1     1     2     0     0 -3.611033541E+01  1.163181928E+02 -2.016372269E+02  2.666766761E+02  1.250000000E+02  0.00000E+00  9.000E+00
      21     1     1     2   502   511 -6.341730006E+00  9.155022929E+00 -7.146622500E+01  7.232878611E+01  9.536743164E-07  0.00000E+00  9.000E+00
#rwgt            1           1   5.3956583235073824E-002           8      261771           0
</event>
<event>
      5   9999  3.79277E-02  1.51121E+01 -1.00000E+00  1.77079E-01
      21    -1     0     0   502   501  0.000000000E+00  0.000000000E+00  1.703090902E+02  1.703090902E+02  0.000000000E+00  0.00000E+00  9.000E+00
      21    -1     0     0   512   502  0.000000000E+00  0.000000000E+00 -2.584441545E+02  2.584441545E+02  0.000000000E+00  0.00000E+00  9.000E+00
      25     1     1     2     0     0 -8.176892820E+01  1.029179591E+02  7.080613078E+00  1.815307109E+02  1.250000000E+02  0.00000E+00  9.000E+00
      25     1     1     2     0     0  6.942244993E+01 -9.420354863E+01 -2.220125137E+01  1.726605939E+02  1.250000000E+02  0.00000E+00  9.000E+00
      21     1     1     2   512   501  1.234647827E+01 -8.714410469E+00 -7.301442597E+01  7.456193986E+01  9.536743164E-07  0.00000E+00  9.000E+00
#rwgt            1           1   3.5961152223760028E-002           8      262027           0
</event>
<event>
      5   9999  3.79277E-02  3.09279E+01 -1.00000E+00  1.52127E-01
      21    -1     0     0   502   501  0.000000000E+00  0.000000000E+00  2.061350817E+02  2.061350817E+02  0.000000000E+00  0.00000E+00  9.000E+00
      21    -1     0     0   511   502  0.000000000E+00  0.000000000E+00 -3.595936070E+02  3.595936070E+02  0.000000000E+00  0.00000E+00  9.000E+00
      25     1     1     2     0     0 -6.112736052E+01  1.264192749E+02  5.998294383E+01  1.973356045E+02  1.250000000E+02  0.00000E+00  9.000E+00
      25     1     1     2     0     0  9.124951750E+01 -1.334326814E+02 -6.158748206E+01  2.134215848E+02  1.250000000E+02  0.00000E+00  9.000E+00
      21     1     1     2   511   501 -3.012215698E+01  7.013406506E+00 -1.518539871E+02  1.549714993E+02  0.000000000E+00  0.00000E+00  9.000E+00
#rwgt            1           1   4.0144625466635421E-002           8      262228           0
</event>
<event>
      5   9999 -3.79277E-02  2.48309E+01 -1.00000E+00  1.58972E-01
      21    -1     0     0   502   512  0.000000000E+00  0.000000000E+00  1.118347670E+03  1.118347670E+03  0.000000000E+00  0.00000E+00  9.000E+00
      21    -1     0     0   501   502  0.000000000E+00  0.000000000E+00 -8.360964637E+01  8.360964637E+01  0.000000000E+00  0.00000E+00  9.000E+00
      25     1     1     2     0     0  1.411566204E+02  4.880583111E+01  8.690323478E+01  2.132706563E+02  1.250000000E+02  0.00000E+00  9.000E+00
      25     1     1     2     0     0 -1.525381900E+02 -2.673703775E+01  4.724859020E+02  5.126896685E+02  1.250000000E+02  0.00000E+00  9.000E+00
      21     1     1     2   501   512  1.138156963E+01 -2.206879336E+01  4.753488866E+02  4.759969913E+02  0.000000000E+00  0.00000E+00  9.000E+00
#rwgt            1           1 -0.15851673102592104                8      262422           0
</event>
<event>
      5   9999  3.79277E-02  1.15568E+01 -1.00000E+00  1.88763E-01
      21    -1     0     0   502   511  0.000000000E+00  0.000000000E+00  9.877933193E+02  9.877933193E+02  0.000000000E+00  0.00000E+00  9.000E+00
      21    -1     0     0   501   502  0.000000000E+00  0.000000000E+00 -1.367230680E+02  1.367230680E+02  0.000000000E+00  0.00000E+00  9.000E+00
      25     1     1     2     0     0  2.720683938E+01 -1.854982749E+00  1.943669092E+02  2.326953984E+02  1.250000000E+02  0.00000E+00  9.000E+00
      25     1     1     2     0     0 -2.984676383E+01 -9.396275347E+00 -8.218982314E+01  1.528374507E+02  1.250000000E+02  0.00000E+00  9.000E+00
      21     1     1     2   501   511  2.639924451E+00  1.125125810E+01  7.388931652E+02  7.389835382E+02  0.000000000E+00  0.00000E+00  9.000E+00
#rwgt            1           1   5.5982787607653343E-002           8      262630           0
</event>
<event>
      5   9999  3.79277E-02  9.68396E+00 -1.00000E+00  1.97383E-01
      21    -1     0     0   502   501  0.000000000E+00  0.000000000E+00  1.229813780E+03  1.229813780E+03  0.000000000E+00  0.00000E+00  9.000E+00
      21    -1     0     0   501   512  0.000000000E+00  0.000000000E+00 -3.749250562E+01  3.749250562E+01  0.000000000E+00  0.00000E+00  9.000E+00
      25     1     1     2     0     0  2.333948869E+00  8.924356824E-01  1.189221886E+02  1.725506613E+02  1.250000000E+02  0.00000E+00  9.000E+00
      25     1     1     2     0     0 -7.504591881E-01 -1.044605808E+01  1.077106647E+03  1.084386191E+03  1.250000000E+02  0.00000E+00  9.000E+00
      21     1     1     2   502   512 -1.583489681E+00  9.553622398E+00 -3.707560758E+00  1.036943331E+01  2.269677253E-07  0.00000E+00  9.000E+00
#rwgt            1           1   5.3617259404492058E-002           8      262803           0
</event>
<event>
      5   9999  3.79277E-02  9.16047E+01 -1.00000E+00  1.25565E-01
      21    -1     0     0   511   501  0.000000000E+00  0.000000000E+00  3.032533786E+02  3.032533786E+02  0.000000000E+00  0.00000E+00  9.000E+00
      21    -1     0     0   501   502  0.000000000E+00  0.000000000E+00 -5.940585306E+02  5.940585306E+02  0.000000000E+00  0.00000E+00  9.000E+00
      25     1     1     2     0     0  1.110141777E+02  7.310923871E+01 -3.495642339E+02  3.943212675E+02  1.250000000E+02  0.00000E+00  9.000E+00
      25     1     1     2     0     0 -1.123821038E+02 -1.647037660E+02 -1.471999897E+02  2.775786460E+02  1.250000000E+02  0.00000E+00  9.000E+00
      21     1     1     2   511   502  1.367926079E+00  9.159452727E+01  2.059590715E+02  2.254119956E+02  3.814697266E-06  0.00000E+00  9.000E+00
#rwgt            1           1   3.8761487650935601E-002           8      263124           0
</event>
<event>
      5   9999  3.79277E-02  6.76307E+01 -1.00000E+00  1.31983E-01
      21    -1     0     0   512   501  0.000000000E+00  0.000000000E+00  1.645486379E+02  1.645486379E+02  0.000000000E+00  0.00000E+00  9.000E+00
      21    -1     0     0   501   502  0.000000000E+00  0.000000000E+00 -1.172398789E+03  1.172398789E+03  0.000000000E+00  0.00000E+00  9.000E+00
      25     1     1     2     0     0  7.903457067E+01  7.525253756E+01 -1.292127613E+02  2.103101173E+02  1.250000000E+02  0.00000E+00  9.000E+00
      25     1     1     2     0     0 -1.454618900E+02 -8.795390487E+01 -9.812847253E+02  1.003712988E+03  1.250000000E+02  0.00000E+00  9.000E+00
      21     1     1     2   512   502  6.642731935E+01  1.270136730E+01  1.026473350E+02  1.229243217E+02  3.814697266E-06  0.00000E+00  9.000E+00
#rwgt            1           1   4.6058061351827169E-002           8      263217           0
</event>
<event>
      5   9999  3.79277E-02  1.15397E+01 -1.00000E+00  1.88832E-01
      21    -1     0     0   502   511  0.000000000E+00  0.000000000E+00  5.825335047E+01  5.825335047E+01  0.000000000E+00  0.00000E+00  9.000E+00
      21    -1     0     0   501   502  0.000000000E+00  0.000000000E+00 -5.628270646E+02  5.628270646E+02  0.000000000E+00  0.00000E+00  9.000E+00
      25     1     1     2     0     0  3.133408032E+01 -5.018141491E+01 -4.358056544E+02  4.572215736E+02  1.250000000E+02  0.00000E+00  9.000E+00
      25     1     1     2     0     0 -3.660531341E+01  3.991596329E+01 -5.795254397E+01  1.480430020E+02  1.250000000E+02  0.00000E+00  9.000E+00
      21     1     1     2   501   511  5.271233094E+00  1.026545162E+01 -1.081551579E+01  1.581583944E+01  1.685873940E-07  0.00000E+00  9.000E+00
#rwgt            1           1   4.1635585748788430E-002           8      263318           0
</event>
<event>
      5   9999  3.79277E-02  5.45783E+01 -1.00000E+00  1.36939E-01
      21    -1     0     0   502   501  0.000000000E+00  0.000000000E+00  1.263374388E+02  1.263374388E+02  0.000000000E+00  0.00000E+00  9.000E+00
      21    -1     0     0   501   512  0.000000000E+00  0.000000000E+00 -1.328605262E+03  1.328605262E+03  0.000000000E+00  0.00000E+00  9.000E+00
      25     1     1     2     0     0 -7.332797780E+01 -1.129845051E+02 -1.639559644E+02  2.462702763E+02  1.250000000E+02  0.00000E+00  9.000E+00
      25     1     1     2     0     0  6.822621057E+01  5.864515332E+01  1.427629302E+01  1.546702375E+02  1.250000000E+02  0.00000E+00  9.000E+00
      21     1     1     2   502   512  5.101767225E+00  5.433935173E+01 -1.052588152E+03  1.054002187E+03  0.000000000E+00  0.00000E+00  9.000E+00
#rwgt            1           1   4.5269923569080647E-002           8      263545           0
</event>
<event>
      5   9999  3.79277E-02  1.16229E+01 -1.00000E+00  1.88498E-01
      21    -1     0     0   502   501  0.000000000E+00  0.000000000E+00  2.925513766E+02  2.925513766E+02  0.000000000E+00  0.00000E+00  9.000E+00
      21    -1     0     0   501   511  0.000000000E+00  0.000000000E+00 -1.555615019E+02  1.555615019E+02  0.000000000E+00  0.00000E+00  9.000E+00
      25     1     1     2     0     0 -9.664275215E+01  9.562106983E+01 -6.360849758E+00  1.847935901E+02  1.250000000E+02  0.00000E+00  9.000E+00
      25     1     1     2     0     0  9.873281981E+01 -8.418763861E+01  1.613745481E+02  2.418728446E+02  1.250000000E+02  0.00000E+00  9.000E+00
      21     1     1     2   502   511 -2.090067668E+00 -1.143343122E+01 -1.802382362E+01  2.144644377E+01  2.384185791E-07  0.00000E+00  9.000E+00
#rwgt            1           1   4.1550188839670446E-002           8      263684           0
</event>
<event>
      5   9999  3.79277E-02  1.44319E+01 -1.00000E+00  1.78978E-01
      21    -1     0     0   502   501  0.000000000E+00  0.000000000E+00  2.501787826E+01  2.501787826E+01  0.000000000E+00  0.00000E+00  9.000E+00
      21    -1     0     0   501   512  0.000000000E+00  0.000000000E+00 -9.618596561E+02  9.618596561E+02  0.000000000E+00  0.00000E+00  9.000E+00
      25     1     1     2     0     0 -6.156482116E+01 -2.568868153E+01 -3.482748008E+02  3.759926495E+02  1.250000000E+02  0.00000E+00  9.000E+00
      25     1     1     2     0     0  7.543771009E+01  2.966636485E+01 -5.274494117E+02  5.480865107E+02  1.250000000E+02  0.00000E+00  9.000E+00
      21     1     1     2   502   512 -1.387288893E+01 -3.977683321E+00 -6.111756533E+01  6.279837421E+01  6.743495762E-07  0.00000E+00  9.000E+00
#rwgt            1           1   9.9629148602705261E-002           8      264100           0
</event>
<event>
      5   9999  3.79277E-02  2.43386E+01 -1.00000E+00  1.59628E-01
      21    -1     0     0   502   511  0.000000000E+00  0.000000000E+00  3.298602959E+01  3.298602959E+01  0.000000000E+00  0.00000E+00  9.000E+00
      21    -1     0     0   501   502  0.000000000E+00  0.000000000E+00 -9.323439213E+02  9.323439213E+02  0.000000000E+00  0.00000E+00  9.000E+00
      25     1     1     2     0     0  1.055838396E+01  4.078106304E+01 -5.687939386E+02  5.838887900E+02  1.250000000E+02  0.00000E+00  9.000E+00
      25     1     1     2     0     0  1.259405736E+00 -6.205796028E+01 -3.286167021E+02  3.570248078E+02  1.250000000E+02  0.00000E+00  9.000E+00
      21     1     1     2   501   511 -1.181778969E+01  2.127689723E+01 -1.947251114E+00  2.441635305E+01  6.677316577E-07  0.00000E+00  9.000E+00
#rwgt            1           1   4.9854447515339566E-002           8      264262           0
</event>
<event>
      5   9999  3.79277E-02  8.82309E+00 -1.00000E+00  2.02261E-01
      21    -1     0     0   502   501  0.000000000E+00  0.000000000E+00  8.630972794E+02  8.630972794E+02  0.000000000E+00  0.00000E+00  9.000E+00
      21    -1     0     0   512   502  0.000000000E+00  0.000000000E+00 -7.011426759E+01  7.011426759E+01  0.000000000E+00  0.00000E+00  9.000E+00
      25     1     1     2     0     0 -1.209270187E+02  1.011151834E+02  1.403981057E+02  2.453247894E+02  1.250000000E+02  0.00000E+00  9.000E+00
      25     1     1     2     0     0  1.255398692E+02 -9.359397249E+01  6.473033831E+02  6.776036896E+02  1.250000000E+02  0.00000E+00  9.000E+00
      21     1     1     2   512   501 -4.612850424E+00 -7.521210943E+00  5.281523022E+00  1.028306805E+01  2.149076030E-07  0.00000E+00  9.000E+00
#rwgt            1           1   2.0519334600860192E-002           8      264397           0
</event>
<event>
      5   9999  3.79277E-02  3.10146E+01 -1.00000E+00  1.52043E-01
      21    -1     0     0   502   501  0.000000000E+00  0.000000000E+00  3.459800657E+02  3.459800657E+02  0.000000000E+00  0.00000E+00  9.000E+00
      21    -1     0     0   501   511  0.000000000E+00  0.000000000E+00 -1.374925778E+02  1.374925778E+02  0.000000000E+00  0.00000E+00  9.000E+00
      25     1     1     2     0     0 -1.616944006E+02 -8.865092056E+00  1.640261573E+02  2.622084082E+02  1.250000000E+02  0.00000E+00  9.000E+00
      25     1     1     2     0     0  1.347744613E+02  2.426701415E+01  3.380259826E+01  1.884692523E+02  1.250000000E+02  0.00000E+00  9.000E+00
      21     1     1     2   502   511  2.691993922E+01 -1.540192210E+01  1.065873229E+01  3.279498294E+01  4.616955931E-07  0.00000E+00  9.000E+00
#rwgt            1           1   4.5565417292710096E-002           8      264740           0
</event>
<event>
      5   9999  3.79277E-02  1.59999E+01 -1.00000E+00  1.74783E-01
      21    -1     0     0   502   501  0.000000000E+00  0.000000000E+00  2.893282404E+02  2.893282404E+02  0.000000000E+00  0.00000E+00  9.000E+00
      21    -1     0     0   512   502  0.000000000E+00  0.000000000E+00 -1.429461060E+02  1.429461060E+02  0.000000000E+00  0.00000E+00  9.000E+00
      25     1     1     2     0     0 -1.196155082E+02 -3.187760017E+01  4.776695989E+01  1.822929885E+02  1.250000000E+02  0.00000E+00  9.000E+00
      25     1     1     2     0     0  1.093682790E+02  4.416549973E+01  1.295046598E+02  2.151940258E+02  1.250000000E+02  0.00000E+00  9.000E+00
      21     1     1     2   512   501  1.024722920E+01 -1.228789956E+01 -3.088948517E+01  3.478733212E+01  3.371747881E-07  0.00000E+00  9.000E+00
#rwgt            1           1   5.0232753289528101E-002           8      264978           0
</event>
<event>
      5   9999  3.79277E-02  2.23379E+01 -1.00000E+00  1.62503E-01
      21    -1     0     0   502   511  0.000000000E+00  0.000000000E+00  8.141673811E+02  8.141673811E+02  0.000000000E+00  0.00000E+00  9.000E+00
      21    -1     0     0   501   502  0.000000000E+00  0.000000000E+00 -1.557456654E+02  1.557456654E+02  0.000000000E+00  0.00000E+00  9.000E+00
      25     1     1     2     0     0 -1.461960841E+02 -1.815429289E+02  1.590545324E+01  2.649700238E+02  1.250000000E+02  0.00000E+00  9.000E+00
      25     1     1     2     0     0  1.246235248E+02  1.757456456E+02  4.788470299E+02  5.397564571E+02  1.250000000E+02  0.00000E+00  9.000E+00
      21     1     1     2   501   511  2.157255929E+01  5.797283375E+00  1.636692325E+02  1.651865657E+02  2.697398305E-06  0.00000E+00  9.000E+00
#rwgt            1           1  0.11876280337900715                8      265291           0
</event>
<event>
      5   9999  3.79277E-02  5.58240E+01 -1.00000E+00  1.36399E-01
      -3    -1     0     0     0   501  0.000000000E+00  0.000000000E+00  2.055126567E+02  2.055126567E+02  0.000000000E+00  0.00000E+00  9.000E+00
      21    -1     0     0   501   502  0.000000000E+00  0.000000000E+00 -3.408008723E+02  3.408008723E+02  0.000000000E+00  0.00000E+00  9.000E+00
      25     1     1     2     0     0  6.067355625E+01  7.813315619E+01 -2.236816613E+02  2.746717243E+02  1.250000000E+02  0.00000E+00  9.000E+00
      25     1     1     2     0     0 -9.245792121E+01 -1.240250954E+02  8.316368106E+01  2.155733966E+02  1.250000000E+02  0.00000E+00  9.000E+00
      -3     1     1     2     0   502  3.178436496E+01  4.589193921E+01  5.229764672E+00  5.606840803E+01  8.554875907E-07  0.00000E+00  9.000E+00
#rwgt            1           1   2.9672321778654389E-002           8      265407           0
</event>
<event>
      5   9999  3.79277E-02  5.57972E+01 -1.00000E+00  1.36411E-01
      21    -1     0     0   511   501  0.000000000E+00  0.000000000E+00  2.073822611E+02  2.073822611E+02  0.000000000E+00  0.00000E+00  9.000E+00
      21    -1     0     0   501   502  0.000000000E+00  0.000000000E+00 -3.680354941E+02  3.680354941E+02  0.000000000E+00  0.00000E+00  9.000E+00
      25     1     1     2     0     0  6.508590872E+01 -3.744774586E+01  9.401080590E+01  1.734979562E+02  1.250000000E+02  0.00000E+00  9.000E+00
      25     1     1     2     0     0 -1.914062343E+01  6.910779330E+01 -2.981683428E+02  3.311670443E+02  1.250000000E+02  0.00000E+00  9.000E+00
      21     1     1     2   511   502 -4.594528528E+01 -3.166004744E+01  4.350430388E+01  7.075275471E+01  1.651812370E-06  0.00000E+00  9.000E+00
#rwgt            1           1   1.6678790217336644E-002           8      265549           0
</event>
<event>
      5   9999  3.79277E-02  1.17204E+02 -1.00000E+00  1.20804E-01
      21    -1     0     0   512   501  0.000000000E+00  0.000000000E+00  1.356615833E+02  1.356615833E+02  0.000000000E+00  0.00000E+00  9.000E+00
      21    -1     0     0   501   502  0.000000000E+00  0.000000000E+00 -1.613715413E+03  1.613715413E+03  0.000000000E+00  0.00000E+00  9.000E+00
      25     1     1     2     0     0  2.475823915E+02  1.053982741E+02 -7.334935002E+02  7.912291398E+02  1.250000000E+02  0.00000E+00  9.000E+00
      25     1     1     2     0     0 -1.432713040E+02 -5.195662545E+01 -8.032430922E+02  8.270735292E+02  1.250000000E+02  0.00000E+00  9.000E+00
      21     1     1     2   512   502 -1.043110875E+02 -5.344164863E+01  5.868276228E+01  1.310743277E+02  3.754619538E-06  0.00000E+00  9.000E+00
#rwgt            1           1   3.9166478806888130E-002           8      265738           0
</event>
<event>
      5   9999  3.79277E-02  1.27689E+01 -1.00000E+00  1.84236E-01
      21    -1     0     0   511   501  0.000000000E+00  0.000000000E+00  1.909135468E+02  1.909135468E+02  0.000000000E+00  0.00000E+00  9.000E+00
      21    -1     0     0   501   502  0.000000000E+00  0.000000000E+00 -2.051901835E+02  2.051901835E+02  0.000000000E+00  0.00000E+00  9.000E+00
      25     1     1     2     0     0  7.904614371E+00 -1.221949238E+02  7.538628296E+01  1.905312940E+02  1.250000000E+02  0.00000E+00  9.000E+00
      25     1     1     2     0     0 -1.009450859E+01  1.096152527E+02 -9.498272137E+01  1.917397196E+02  1.250000000E+02  0.00000E+00  9.000E+00
      21     1     1     2   511   502  2.189894219E+00  1.257967110E+01  5.319801751E+00  1.383271674E+01  2.457562462E-07  0.00000E+00  9.000E+00
#rwgt            1           1   4.2042447730485578E-002           8      265838           0
</event>
<event>
      5   9999  3.79277E-02  3.53564E+01 -1.00000E+00  1.48244E-01
      21    -1     0     0   502   501  0.000000000E+00  0.000000000E+00  4.018413247E+02  4.018413247E+02  0.000000000E+00  0.00000E+00  9.000E+00
      21    -1     0     0   512   502  0.000000000E+00  0.000000000E+00 -2.482936619E+02  2.482936619E+02  0.000000000E+00  0.00000E+00  9.000E+00
      25     1     1     2     0     0  2.240207274E+02  1.288310898E+02  8.645573749E+01  2.998038201E+02  1.250000000E+02  0.00000E+00  9.000E+00
      25     1     1     2     0     0 -2.523063452E+02 -1.076179654E+02  8.132722238E+01  3.122166482E+02  1.250000000E+02  0.00000E+00  9.000E+00
      21     1     1     2   512   501  2.828561783E+01 -2.121312437E+01 -1.423529705E+01  3.811451828E+01  2.920019320E-07  0.00000E+00  9.000E+00
#rwgt            1           1   2.6821883188721078E-002           8      266076           0
</event>
<event>
      5   9999  3.79277E-02  5.45596E+01 -1.00000E+00  1.36947E-01
      21    -1     0     0   502   511  0.000000000E+00  0.000000000E+00  3.587518661E+02  3.587518661E+02  0.000000000E+00  0.00000E+00  9.000E+00
      21    -1     0     0   501   502  0.000000000E+00  0.000000000E+00 -1.078854330E+02  1.078854330E+02  0.000000000E+00  0.00000E+00  9.000E+00
      25     1     1     2     0     0  7.537418240E+01  7.683736361E+01  2.379565332E+01  1.666627761E+02  1.250000000E+02  0.00000E+00  9.000E+00
      25     1     1     2     0     0 -5.828942088E+01 -2.502166822E+01  1.782266024E+02  2.267453688E+02  1.250000000E+02  0.00000E+00  9.000E+00
      21     1     1     2   501   511 -1.708476151E+01 -5.181569540E+01  4.884417728E+01  7.322915416E+01  1.168007728E-06  0.00000E+00  9.000E+00
#rwgt            1           1   3.2558834245937543E-002           8      266251           0
</event>
<event>
      5   9999  3.79277E-02  1.04536E+01 -1.00000E+00  1.93556E-01
      21    -1     0     0   502   501  0.000000000E+00  0.000000000E+00  2.544067628E+02  2.544067628E+02  0.000000000E+00  0.00000E+00  9.000E+00
      21    -1     0     0   512   502  0.000000000E+00  0.000000000E+00 -3.729687580E+02  3.729687580E+02  0.000000000E+00  0.00000E+00  9.000E+00
      25     1     1     2     0     0 -1.384907635E+01  2.587184932E+02  6.240856482E+00  2.877342592E+02  1.250000000E+02  0.00000E+00  9.000E+00
      25     1     1     2     0     0  1.593379589E+01 -2.689621073E+02 -1.011287183E+02  3.137618822E+02  1.250000000E+02  0.00000E+00  9.000E+00
      21     1     1     2   512   501 -2.084719536E+00  1.024361418E+01 -2.367413342E+01  2.587937944E+01  5.840038640E-07  0.00000E+00  9.000E+00
#rwgt            1           1  0.11597768822450659                8      266541           0
</event>
<event>
      5   9999  3.79277E-02  3.37592E+01 -1.00000E+00  1.49562E-01
      21    -1     0     0   502   501  0.000000000E+00  0.000000000E+00  2.232229062E+02  2.232229062E+02  0.000000000E+00  0.00000E+00  9.000E+00
      21    -1     0     0   501   511  0.000000000E+00  0.000000000E+00 -2.296562715E+02  2.296562715E+02  0.000000000E+00  0.00000E+00  9.000E+00
      25     1     1     2     0     0  8.330256358E+01 -9.402059433E+01  5.821818543E+01  1.865302827E+02  1.250000000E+02  0.00000E+00  9.000E+00
      25     1     1     2     0     0 -6.984994018E+01  1.249836489E+02  3.714548887E+00  1.901018793E+02  1.250000000E+02  0.00000E+00  9.000E+00
      21     1     1     2   502   511 -1.345262340E+01 -3.096305452E+01 -6.836609961E+01  7.624701566E+01  9.536743164E-07  0.00000E+00  9.000E+00
#rwgt            1           1   5.4679598130776066E-002           8      266883           0
</event>
<event>
      5   9999 -3.79277E-02  2.24203E+01 -1.00000E+00  1.62377E-01
      21    -1     0     0   502   512  0.000000000E+00  0.000000000E+00  1.160457641E+03  1.160457641E+03  0.000000000E+00  0.00000E+00  9.000E+00
      21    -1     0     0   501   502  0.000000000E+00  0.000000000E+00 -1.487299826E+02  1.487299826E+02  0.000000000E+00  0.00000E+00  9.000E+00
      25     1     1     2     0     0 -2.128677478E+02 -2.030502157E+02  7.331566732E+02  7.998035856E+02  1.250000000E+02  0.00000E+00  9.000E+00
      25     1     1     2     0     0  2.319874102E+02  2.147596076E+02  1.377620757E+02  3.668013591E+02  1.250000000E+02  0.00000E+00  9.000E+00
      21     1     1     2   501   512 -1.911966240E+01 -1.170939187E+01  1.408089095E+02  1.425826789E+02  2.697398305E-06  0.00000E+00  9.000E+00
#rwgt            1           1 -0.19225909127032628                8      266961           0
</event>
<event>
      5   9999  3.79277E-02  6.69514E+01 -1.00000E+00  1.32208E-01
      21    -1     0     0   502   511  0.000000000E+00  0.000000000E+00  3.424305089E+02  3.424305089E+02  0.000000000E+00  0.00000E+00  9.000E+00
      21    -1     0     0   501   502  0.000000000E+00  0.000000000E+00 -1.752697578E+02  1.752697578E+02  0.000000000E+00  0.00000E+00  9.000E+00
      25     1     1     2     0     0  2.674066525E+01 -1.517438628E+02  1.374517500E+02  2.413695230E+02  1.250000000E+02  0.00000E+00  9.000E+00
      25     1     1     2     0     0  3.966030080E+01  1.431766660E+02 -1.668788754E+01  1.948742742E+02  1.250000000E+02  0.00000E+00  9.000E+00
      21     1     1     2   501   511 -6.640096604E+01  8.567196815E+00  4.639688859E+01  8.145646950E+01  1.168007728E-06  0.00000E+00  9.000E+00
#rwgt            1           1   3.3132335733106463E-002           8      267242           0
</event>
<event>
      5   9999  3.79277E-02  2.25447E+01 -1.00000E+00  1.62189E-01
      21    -1     0     0   502   501  0.000000000E+00  0.000000000E+00  2.902059370E+02  2.902059370E+02  0.000000000E+00  0.00000E+00  9.000E+00
      21    -1     0     0   512   502  0.000000000E+00  0.000000000E+00 -2.153903879E+02  2.153903879E+02  0.000000000E+00  0.00000E+00  9.000E+00
      25     1     1     2     0     0  4.168226206E+01  9.066807544E+01 -6.465128773E+01  1.725192739E+02  1.250000000E+02  0.00000E+00  9.000E+00
      25     1     1     2     0     0 -6.202718724E+01 -8.095491330E+01  2.066773497E+02  2.621861873E+02  1.250000000E+02  0.00000E+00  9.000E+00
      21     1     1     2   512   501  2.034492517E+01 -9.713162142E+00 -6.721051292E+01  7.089086362E+01  1.907348633E-06  0.00000E+00  9.000E+00
#rwgt            1           1   2.5923025551880599E-002           8      267362           0
</event>
<event>
      5   9999  3.79277E-02  2.21273E+01 -1.00000E+00  1.62827E-01
      21    -1     0     0   502   511  0.000000000E+00  0.000000000E+00  3.652145569E+02  3.652145569E+02  0.000000000E+00  0.00000E+00  9.000E+00
      21    -1     0     0   501   502  0.000000000E+00  0.000000000E+00 -2.771167103E+02  2.771167103E+02  0.000000000E+00  0.00000E+00  9.000E+00
      25     1     1     2     0     0  1.460345070E+02  2.424650147E+02  4.221451305E+00  3.094481883E+02  1.250000000E+02  0.00000E+00  9.000E+00
      25     1     1     2     0     0 -1.277445054E+02 -2.300114115E+02  5.488781388E+01  2.964145411E+02  1.250000000E+02  0.00000E+00  9.000E+00
      21     1     1     2   501   511 -1.829000156E+01 -1.245360328E+01  2.898858148E+01  3.646853778E+01  5.840038640E-07  0.00000E+00  9.000E+00
#rwgt            1           1   3.2851082863390543E-002           8      267493           0
</event>
<event>
      5   9999  3.79277E-02  8.22288E+01 -1.00000E+00  1.27775E-01
      21    -1     0     0   512   501  0.000000000E+00  0.000000000E+00  2.533679205E+02  2.533679205E+02  0.000000000E+00  0.00000E+00  9.000E+00
      21    -1     0     0   501   502  0.000000000E+00  0.000000000E+00 -1.917197481E+02  1.917197481E+02  0.000000000E+00  0.00000E+00  9.000E+00
      25     1     1     2     0     0 -5.256834392E+00 -8.356857425E+01  2.274658699E+01  1.521635572E+02  1.250000000E+02  0.00000E+00  9.000E+00
      25     1     1     2     0     0  1.165257139E+01  1.655482805E+02  2.151951019E+01  2.088782059E+02  1.250000000E+02  0.00000E+00  9.000E+00
      21     1     1     2   512   502 -6.395736995E+00 -8.197970626E+01  1.738207518E+01  8.404590548E+01  1.907348633E-06  0.00000E+00  9.000E+00
#rwgt            2          11   3.2357714262197233E-003           8      267709           0
</event>
<event>
      5   9999  3.79277E-02  1.03014E+02 -1.00000E+00  1.23251E-01
       2    -1     0     0   502     0  0.000000000E+00  0.000000000E+00  1.901237446E+03  1.901237446E+03  0.000000000E+00  0.00000E+00  9.000E+00
      21    -1     0     0   501   502  0.000000000E+00  0.000000000E+00 -3.445033048E+01  3.445033048E+01  0.000000000E+00  0.00000E+00  9.000E+00
      25     1     1     2     0     0  1.432382958E+02  2.081111143E+01  8.446972948E+02  8.660766892E+02  1.250000000E+02  0.00000E+00  9.000E+00
      25     1     1     2     0     0 -9.406953887E+01  6.971098962E+01  3.498447647E+02  3.895190106E+02  1.250000000E+02  0.00000E+00  9.000E+00
       2     1     1     2   501     0 -4.916875690E+01 -9.052210105E+01  6.722450556E+02  6.800920763E+02  7.629394531E-06  0.00000E+00  9.000E+00
#rwgt            1           1   3.7365411193629128E-002           8      267804           0
</event>
<event>
      5   9999  3.79277E-02  1.85809E+01 -1.00000E+00  1.69050E-01
      21    -1     0     0   502   511  0.000000000E+00  0.000000000E+00  9.270078022E+01  9.270078022E+01  0.000000000E+00  0.00000E+00  9.000E+00
      21    -1     0     0   501   502  0.000000000E+00  0.000000000E+00 -4.803272492E+02  4.803272492E+02  0.000000000E+00  0.00000E+00  9.000E+00
      25     1     1     2     0     0  1.554314098E+02 -2.394954141E+01 -1.223944013E+02  2.352400755E+02  1.250000000E+02  0.00000E+00  9.000E+00
      25     1     1     2     0     0 -1.368719599E+02  2.305780283E+01 -2.563737052E+02  3.172035189E+02  1.250000000E+02  0.00000E+00  9.000E+00
      21     1     1     2   501   511 -1.855944985E+01  8.917385877E-01 -8.858362517E+00  2.058443496E+01  2.064765462E-07  0.00000E+00  9.000E+00
#rwgt            1           1   4.2221410386977395E-002           8      267871           0
</event>
<event>
      5   9999  3.79277E-02  1.20855E+01 -1.00000E+00  1.86704E-01
      21    -1     0     0   512   501  0.000000000E+00  0.000000000E+00  6.648782756E+02  6.648782756E+02  0.000000000E+00  0.00000E+00  9.000E+00
      21    -1     0     0   501   502  0.000000000E+00  0.000000000E+00 -7.106403302E+01  7.106403302E+01  0.000000000E+00  0.00000E+00  9.000E+00
      25     1     1     2     0     0 -1.069319074E+02  1.328791216E+02  3.408236243E+02  4.010947976E+02  1.250000000E+02  0.00000E+00  9.000E+00
      25     1     1     2     0     0  9.524671315E+01 -1.297942433E+02  2.209500063E+02  3.006033720E+02  1.250000000E+02  0.00000E+00  9.000E+00
      21     1     1     2   512   502  1.168519429E+01 -3.084878284E+00  3.204061203E+01  3.424413904E+01  6.743495762E-07  0.00000E+00  9.000E+00
#rwgt            1           1   3.2933031794896664E-002           8      268057           0
</event>
<event>
      5   9999  3.79277E-02  1.12213E+02 -1.00000E+00  1.21618E-01
       1    -1     0     0   502     0  0.000000000E+00  0.000000000E+00  1.137894932E+03  1.137894932E+03  0.000000000E+00  0.00000E+00  9.000E+00
      21    -1     0     0   501   502  0.000000000E+00  0.000000000E+00 -8.888345017E+01  8.888345017E+01  0.000000000E+00  0.00000E+00  9.000E+00
      25     1     1     2     0     0  1.587716713E+02  4.285902973E+00  5.954334854E+02  6.288027100E+02  1.250000000E+02  0.00000E+00  9.000E+00
      25     1     1     2     0     0 -1.112718580E+02 -1.059497869E+02  9.015448428E+01  2.176226431E+02  1.250000000E+02  0.00000E+00  9.000E+00
       1     1     1     2   501     0 -4.749981336E+01  1.016638840E+02  3.634235126E+02  3.803530296E+02  0.000000000E+00  0.00000E+00  9.000E+00
#rwgt            1           1   4.0030278577602170E-002           8      268297           0
</event>
<event>
      5   9999  3.79277E-02  5.27686E+01 -1.00000E+00  1.37753E-01
      21    -1     0     0   502   501  0.000000000E+00  0.000000000E+00  8.097257503E+01  8.097257503E+01  0.000000000E+00  0.00000E+00  9.000E+00
       1    -1     0     0   501     0  0.000000000E+00  0.000000000E+00 -7.037031215E+02  7.037031215E+02  0.000000000E+00  0.00000E+00  9.000E+00
      25     1     1     2     0     0  9.866044334E+01  7.298585264E+01 -1.108500826E+02  2.073006478E+02  1.250000000E+02  0.00000E+00  9.000E+00
      25     1     1     2     0     0 -1.483071655E+02 -9.086671639E+01 -4.031210504E+02  4.564902593E+02  1.250000000E+02  0.00000E+00  9.000E+00
       1     1     1     2   502     0  4.964672220E+01  1.788086375E+01 -1.087594134E+02  1.208847894E+02  1.907348633E-06  0.00000E+00  9.000E+00
#rwgt            1           1  0.18023002569865318                8      268413           0
</event>
<event>
      5   9999  3.79277E-02  1.75201E+02 -1.00000E+00  1.13782E-01
      21    -1     0     0   511   501  0.000000000E+00  0.000000000E+00  6.157894051E+02  6.157894051E+02  0.000000000E+00  0.00000E+00  9.000E+00
      21    -1     0     0   501   502  0.000000000E+00  0.000000000E+00 -3.683086341E+02  3.683086341E+02  0.000000000E+00  0.00000E+00  9.000E+00
      25     1     1     2     0     0  6.612651912E+01  1.003541344E+02 -1.691865581E+02  2.422658875E+02  1.250000000E+02  0.00000E+00  9.000E+00
      25     1     1     2     0     0 -2.023219823E+02 -2.105638326E+02  3.212907603E+01  3.192625716E+02  1.250000000E+02  0.00000E+00  9.000E+00
      21     1     1     2   511   502  1.361954632E+02  1.102096982E+02  3.845382531E+02  4.225695799E+02  5.394796609E-06  0.00000E+00  9.000E+00
#rwgt            1           1   4.1464967031591228E-002           8      268560           0
</event>
<event>
      5   9999  3.79277E-02  1.71706E+01 -1.00000E+00  1.72027E-01
      21    -1     0     0   502   501  0.000000000E+00  0.000000000E+00  9.551511926E+02  9.551511926E+02  0.000000000E+00  0.00000E+00  9.000E+00
      21    -1     0     0   512   502  0.000000000E+00  0.000000000E+00 -7.396591889E+01  7.396591889E+01  0.000000000E+00  0.00000E+00  9.000E+00
      25     1     1     2     0     0  8.350175993E+01  2.586654601E+01  8.479007281E+02  8.615116173E+02  1.250000000E+02  0.00000E+00  9.000E+00
      25     1     1     2     0     0 -7.097414458E+01 -1.412397941E+01  3.882466736E+01  1.495632668E+02  1.250000000E+02  0.00000E+00  9.000E+00
      21     1     1     2   512   501 -1.252761536E+01 -1.174256660E+01 -5.540121744E+00  1.804222730E+01  6.136673773E-07  0.00000E+00  9.000E+00
#rwgt            1           1   3.2005281984925124E-002           8      268608           0
</event>
<event>
      5   9999  3.79277E-02  1.01297E+02 -1.00000E+00  1.23577E-01
      21    -1     0     0   502   511  0.000000000E+00  0.000000000E+00  1.063413133E+03  1.063413133E+03  0.000000000E+00  0.00000E+00  9.000E+00
      21    -1     0     0   501   502  0.000000000E+00  0.000000000E+00 -5.726901912E+01  5.726901912E+01  0.000000000E+00  0.00000E+00  9.000E+00
      25     1     1     2     0     0 -1.052831137E+02 -2.271331986E+01  2.630938072E+02  3.105539893E+02  1.250000000E+02  0.00000E+00  9.000E+00
      25     1     1     2     0     0  1.294976444E+02  1.210732498E+02  4.393788671E+02  4.900073067E+02  1.250000000E+02  0.00000E+00  9.000E+00
      21     1     1     2   501   511 -2.421453075E+01 -9.835992992E+01  3.036714400E+02  3.201208565E+02  5.394796609E-06  0.00000E+00  9.000E+00
#rwgt            1           1   1.3542014746469070E-002           8      268873           0
</event>
<event>
      5   9999  3.79277E-02  1.00396E+02 -1.00000E+00  1.23751E-01
      21    -1     0     0   502   501  0.000000000E+00  0.000000000E+00  2.222395255E+01  2.222395255E+01  0.000000000E+00  0.00000E+00  9.000E+00
      -4    -1     0     0     0   502  0.000000000E+00  0.000000000E+00 -2.435970549E+03  2.435970549E+03  0.000000000E+00  0.00000E+00  9.000E+00
      25     1     1     2     0     0  1.882401508E+01 -6.917365093E+01 -5.192080332E+02  5.388332945E+02  1.250000000E+02  0.00000E+00  9.000E+00
      25     1     1     2     0     0 -1.123032819E+02  3.255550551E+01 -7.004542672E+02  7.210638450E+02  1.250000000E+02  0.00000E+00  9.000E+00
      -4     1     1     2     0   501  9.347926684E+01  3.661814542E+01 -1.194084296E+03  1.198297362E+03  0.000000000E+00  0.00000E+00  9.000E+00
#rwgt            1           1   8.4022850373196539E-002           8      268967           0
</event>
<event>
      5   9999  3.79277E-02  2.33548E+01 -1.00000E+00  1.60998E-01
      21    -1     0     0   511   501  0.000000000E+00  0.000000000E+00  4.761480140E+02  4.761480140E+02  0.000000000E+00  0.00000E+00  9.000E+00
      21    -1     0     0   501   502  0.000000000E+00  0.000000000E+00 -1.319179655E+02  1.319179655E+02  0.000000000E+00  0.00000E+00  9.000E+00
      25     1     1     2     0     0  1.313481977E+02  6.361287622E+01  1.096183601E+00  1.921591754E+02  1.250000000E+02  0.00000E+00  9.000E+00
      25     1     1     2     0     0 -1.541122801E+02 -5.839351698E+01  2.765660486E+02  3.453609372E+02  1.250000000E+02  0.00000E+00  9.000E+00
      21     1     1     2   511   502  2.276408239E+01 -5.219359243E+00  6.656781640E+01  7.054586691E+01  9.536743164E-07  0.00000E+00  9.000E+00
#rwgt            1           1   3.6300382606067869E-002           8      269053           0
</event>
<event>
      5   9999  3.79277E-02  2.45558E+01 -1.00000E+00  1.59336E-01
      21    -1     0     0   512   501  0.000000000E+00  0.000000000E+00  7.414451358E+01  7.414451358E+01  0.000000000E+00  0.00000E+00  9.000E+00
      21    -1     0     0   501   502  0.000000000E+00  0.000000000E+00 -7.256873525E+02  7.256873525E+02  0.000000000E+00  0.00000E+00  9.000E+00
      25     1     1     2     0     0 -1.291081854E+02 -3.724971405E+01 -1.343277295E+02  2.274321957E+02  1.250000000E+02  0.00000E+00  9.000E+00
      25     1     1     2     0     0  1.205029388E+02  6.024831259E+01 -5.160696324E+02  5.478171985E+02  1.250000000E+02  0.00000E+00  9.000E+00
      21     1     1     2   512   502  8.605246624E+00 -2.299859855E+01 -1.145476925E+00  2.458247184E+01  8.748644199E-07  0.00000E+00  9.000E+00
#rwgt            1           1   2.5196090602033195E-002           8      269305           0
</event>
<event>
      5   9999  3.79277E-02  4.51719E+01 -1.00000E+00  1.41639E-01
      21    -1     0     0   502   501  0.000000000E+00  0.000000000E+00  5.099445033E+01  5.099445033E+01  0.000000000E+00  0.00000E+00  9.000E+00
      21    -1     0     0   511   502  0.000000000E+00  0.000000000E+00 -7.926185231E+02  7.926185231E+02  0.000000000E+00  0.00000E+00  9.000E+00
      25     1     1     2     0     0 -3.489932530E+01  9.001451254E+01 -1.422680595E+02  2.125694619E+02  1.250000000E+02  0.00000E+00  9.000E+00
      25     1     1     2     0     0  6.545158321E+01 -5.674195156E+01 -4.497780426E+02  4.747934777E+02  1.250000000E+02  0.00000E+00  9.000E+00
      21     1     1     2   511   501 -3.055225791E+01 -3.327256098E+01 -1.495779707E+02  1.562500339E+02  0.000000000E+00  0.00000E+00  9.000E+00
#rwgt            1           1   5.7041348110213635E-002           8      269443           0
</event>
<event>
      5   9999  3.79277E-02  5.44854E+01 -1.00000E+00  1.36980E-01
      21    -1     0     0   512   501  0.000000000E+00  0.000000000E+00  3.382184606E+01  3.382184606E+01  0.000000000E+00  0.00000E+00  9.000E+00
      21    -1     0     0   501   502  0.000000000E+00  0.000000000E+00 -2.248532502E+03  2.248532502E+03  0.000000000E+00  0.00000E+00  9.000E+00
      25     1     1     2     0     0  1.170864651E+02  4.733436949E+01 -1.171737232E+03  1.185134138E+03  1.250000000E+02  0.00000E+00  9.000E+00
      25     1     1     2     0     0 -1.024777774E+02  5.156044046E+00 -1.028099605E+03  1.040741119E+03  1.250000000E+02  0.00000E+00  9.000E+00
      21     1     1     2   512   502 -1.460868771E+01 -5.249041353E+01 -1.487381897E+01  5.647909136E+01  2.987376234E-06  0.00000E+00  9.000E+00
#rwgt            2          11   3.6782031572399009E-003           8      269590           0
</event>
<event>
      5   9999  3.79277E-02  1.99969E+02 -1.00000E+00  1.11651E-01
      21    -1     0     0   511   501  0.000000000E+00  0.000000000E+00  2.980179136E+02  2.980179136E+02  0.000000000E+00  0.00000E+00  9.000E+00
      21    -1     0     0   501   502  0.000000000E+00  0.000000000E+00 -4.946385693E+02  4.946385693E+02  0.000000000E+00  0.00000E+00  9.000E+00
      25     1     1     2     0     0  1.393862132E+02  1.641247975E+02 -3.510827660E+02  4.304062897E+02  1.250000000E+02  0.00000E+00  9.000E+00
      25     1     1     2     0     0 -2.094909346E+01 -3.003558732E+00  4.680016781E+01  1.351411913E+02  1.250000000E+02  0.00000E+00  9.000E+00
      21     1     1     2   511   502 -1.184371197E+02 -1.611212388E+02  1.076619425E+02  2.271090020E+02  5.223489356E-06  0.00000E+00  9.000E+00
#rwgt            1           1   3.6560372944456257E-002           8      269670           0
</event>
<event>
      5   9999  3.79277E-02  7.24958E+01 -1.00000E+00  1.30455E-01
      21    -1     0     0   502   512  0.000000000E+00  0.000000000E+00  1.172040401E+03  1.172040401E+03  0.000000000E+00  0.00000E+00  9.000E+00
      21    -1     0     0   501   502  0.000000000E+00  0.000000000E+00 -2.216255237E+02  2.216255237E+02  0.000000000E+00  0.00000E+00  9.000E+00
      25     1     1     2     0     0 -3.234886400E+02  3.516215893E+02  5.335225715E+02  7.270171776E+02  1.250000000E+02  0.00000E+00  9.000E+00
      25     1     1     2     0     0  3.182712277E+02 -2.793137582E+02  3.183862207E+02  5.443413776E+02  1.250000000E+02  0.00000E+00  9.000E+00
      21     1     1     2   501   512  5.217412323E+00 -7.230783112E+01  9.850608530E+01  1.223073697E+02  2.336015456E-06  0.00000E+00  9.000E+00
#rwgt            1           1  0.15795265419993018                8      269794           0
</event>
<event>
      5   9999  3.79277E-02  3.30514E+01 -1.00000E+00  1.50174E-01
      21    -1     0     0   502   501  0.000000000E+00  0.000000000E+00  3.408970486E+01  3.408970486E+01  0.000000000E+00  0.00000E+00  9.000E+00
      21    -1     0     0   511   502  0.000000000E+00  0.000000000E+00 -1.653304181E+03  1.653304181E+03  0.000000000E+00  0.00000E+00  9.000E+00
      25     1     1     2     0     0 -1.573771844E+02  3.793600484E+01 -9.630008922E+02  9.844807957E+02  1.250000000E+02  0.00000E+00  9.000E+00
      25     1     1     2     0     0  1.581219333E+02 -7.097904897E+01 -5.090687267E+02  5.521019287E+02  1.250000000E+02  0.00000E+00  9.000E+00
      21     1     1     2   511   501 -7.447488305E-01  3.304304413E+01 -1.471448570E+02  1.508111612E+02  1.907348633E-06  0.00000E+00  9.000E+00
#rwgt            1           1   4.3839210086973814E-002           8      269911           0
</event>
<event>
      5   9999  3.79277E-02  5.10505E+01 -1.00000E+00  1.38562E-01
      21    -1     0     0   502   501  0.000000000E+00  0.000000000E+00  1.858561944E+03  1.858561944E+03  0.000000000E+00  0.00000E+00  9.000E+00
      21    -1     0     0   512   502  0.000000000E+00  0.000000000E+00 -4.958347517E+01  4.958347517E+01  0.000000000E+00  0.00000E+00  9.000E+00
      25     1     1     2     0     0 -6.324715886E+01  1.257906770E+02  3.223197858E+02  3.732807815E+02  1.250000000E+02  0.00000E+00  9.000E+00
      25     1     1     2     0     0  1.344163179E+01 -1.145852782E+02  1.471937584E+03  1.481734023E+03  1.250000000E+02  0.00000E+00  9.000E+00
      21     1     1     2   512   501  4.980552708E+01 -1.120539876E+01  1.472109928E+01  5.313061502E+01  1.768159506E-06  0.00000E+00  9.000E+00
#rwgt            1           1   3.7869057565105099E-002           8      270027           0
</event>
<event>
      5   9999  3.79277E-02  2.23688E+01 -1.00000E+00  1.62455E-01
      21    -1     0     0   502   501  0.000000000E+00  0.000000000E+00  1.454208024E+03  1.454208024E+03  0.000000000E+00  0.00000E+00  9.000E+00
      21    -1     0     0   501   511  0.000000000E+00  0.000000000E+00 -3.371420633E+01  3.371420633E+01  0.000000000E+00  0.00000E+00  9.000E+00
      25     1     1     2     0     0 -2.206574866E+01 -1.369457849E+02  9.734686307E+02  9.912150222E+02  1.250000000E+02  0.00000E+00  9.000E+00
      25     1     1     2     0     0  3.137883545E+00  1.250252399E+02  4.384295574E+02  4.727437294E+02  1.250000000E+02  0.00000E+00  9.000E+00
      21     1     1     2   502   511  1.892786512E+01  1.192054507E+01  8.595629870E+00  2.396347900E+01  7.907449699E-07  0.00000E+00  9.000E+00
#rwgt            1           1   5.2378836224863771E-002           8      270108           0
</event>
<event>
      5   9999  3.79277E-02  2.74770E+01 -1.00000E+00  1.55738E-01
      21    -1     0     0   512   501  0.000000000E+00  0.000000000E+00  1.062617189E+02  1.062617189E+02  0.000000000E+00  0.00000E+00  9.000E+00
      21    -1     0     0   501   502  0.000000000E+00  0.000000000E+00 -1.308682290E+03  1.308682290E+03  0.000000000E+00  0.00000E+00  9.000E+00
      25     1     1     2     0     0 -9.214902210E+01 -5.773980532E+01 -9.998136401E+02  1.013448392E+03  1.250000000E+02  0.00000E+00  9.000E+00
      25     1     1     2     0     0  9.678822965E+01  3.065731977E+01 -2.779877330E+02  3.212631512E+02  1.250000000E+02  0.00000E+00  9.000E+00
      21     1     1     2   512   502 -4.639207550E+00  2.708248555E+01  7.538080209E+01  8.023246597E+01  3.814697266E-06  0.00000E+00  9.000E+00
#rwgt            1           1   3.2172964852021015E-002           8      270253           0
</event>
<event>
      5   9999  3.79277E-02  8.56132E+00 -1.00000E+00  2.03893E-01
      21    -1     0     0   502   501  0.000000000E+00  0.000000000E+00  9.293034936E+02  9.293034936E+02  0.000000000E+00  0.00000E+00  9.000E+00
      21    -1     0     0   501   511  0.000000000E+00  0.000000000E+00 -5.940637852E+01  5.940637852E+01  0.000000000E+00  0.00000E+00  9.000E+00
      25     1     1     2     0     0  7.940827401E+01  7.773084435E+01  6.386179519E+02  6.601557745E+02  1.250000000E+02  0.00000E+00  9.000E+00
      25     1     1     2     0     0 -7.838347073E+01 -8.623061050E+01  2.529418630E+02  3.052609912E+02  1.250000000E+02  0.00000E+00  9.000E+00
      21     1     1     2   502   511 -1.024803279E+00  8.499766147E+00 -2.166269979E+01  2.329310646E+01  5.331201500E-07  0.00000E+00  9.000E+00
#rwgt            1           1   4.1563239948792415E-002           8      270401           0
</event>
<event>
      5   9999  3.79277E-02  1.16039E+02 -1.00000E+00  1.20990E-01
       2    -1     0     0   502     0  0.000000000E+00  0.000000000E+00  1.183812596E+03  1.183812596E+03  0.000000000E+00  0.00000E+00  9.000E+00
      21    -1     0     0   501   502  0.000000000E+00  0.000000000E+00 -2.120420501E+02  2.120420501E+02  0.000000000E+00  0.00000E+00  9.000E+00
      25     1     1     2     0     0 -9.190379441E+00 -2.333113959E+00  1.219564993E+02  1.748950949E+02  1.250000000E+02  0.00000E+00  9.000E+00
      25     1     1     2     0     0  7.357045041E+01  9.887433720E+01 -1.398990940E+02  2.244671518E+02  1.250000000E+02  0.00000E+00  9.000E+00
       2     1     1     2   501     0 -6.438007097E+01 -9.654122324E+01  9.897131403E+02  9.964923991E+02  0.000000000E+00  0.00000E+00  9.000E+00
#rwgt            1           1   4.1369983991591731E-002           8      270657           0
</event>
<event>
      5   9999  3.79277E-02  3.55547E+01 -1.00000E+00  1.48086E-01
      21    -1     0     0   502   501  0.000000000E+00  0.000000000E+00  5.380366178E+01  5.380366178E+01  0.000000000E+00  0.00000E+00  9.000E+00
      21    -1     0     0   501   511  0.000000000E+00  0.000000000E+00 -2.148819165E+03  2.148819165E+03  0.000000000E+00  0.00000E+00  9.000E+00
      25     1     1     2     0     0  1.915961650E+02 -1.397598928E+02 -7.394259797E+02  7.865225346E+02  1.250000000E+02  0.00000E+00  9.000E+00
      25     1     1     2     0     0 -2.268429335E+02  1.350902833E+02 -6.864892045E+02  7.460559825E+02  1.250000000E+02  0.00000E+00  9.000E+00
      21     1     1     2   502   511  3.524676846E+01  4.669609458E+00 -6.691003194E+02  6.700443100E+02  0.000000000E+00  0.00000E+00  9.000E+00
#rwgt            1           1   5.4468477271793291E-002           8      270738           0
</event>
<event>
      5   9999  3.79277E-02  2.52223E+01 -1.00000E+00  1.58463E-01
      21    -1     0     0   502   501  0.000000000E+00  0.000000000E+00  9.915153229E+02  9.915153229E+02  0.000000000E+00  0.00000E+00  9.000E+00
      21    -1     0     0   512   502  0.000000000E+00  0.000000000E+00 -1.217049550E+02  1.217049550E+02  0.000000000E+00  0.00000E+00  9.000E+00
      25     1     1     2     0     0  4.409125161E+01 -1.049111023E+02  7.789237288E+02  7.970555521E+02  1.250000000E+02  0.00000E+00  9.000E+00
      25     1     1     2     0     0 -6.840170181E+01  9.819047059E+01  1.642505095E+02  2.385862343E+02  1.250000000E+02  0.00000E+00  9.000E+00
      21     1     1     2   512   501  2.431045019E+01  6.720631733E+00 -7.336387030E+01  7.757849151E+01  1.907348633E-06  0.00000E+00  9.000E+00
#rwgt            1           1   3.5362204533838246E-002           8      270888           0
</event>
<event>
      5   9999  3.79277E-02  9.47412E+01 -1.00000E+00  1.24892E-01
      21    -1     0     0   511   501  0.000000000E+00  0.000000000E+00  4.763336922E+02  4.763336922E+02  0.000000000E+00  0.00000E+00  9.000E+00
      21    -1     0     0   501   502  0.000000000E+00  0.000000000E+00 -2.510801005E+02  2.510801005E+02  0.000000000E+00  0.00000E+00  9.000E+00
      25     1     1     2     0     0  9.215271805E+01  1.625960061E+02 -1.369044827E+02  2.632440352E+02  1.250000000E+02  0.00000E+00  9.000E+00
      25     1     1     2     0     0 -1.135229950E+01 -1.131269706E+02  3.169878387E+02  3.592114643E+02  1.250000000E+02  0.00000E+00  9.000E+00
      21     1     1     2   511   502 -8.080041855E+01 -4.946903555E+01  4.517023577E+01  1.049582932E+02  4.768371582E-07  0.00000E+00  9.000E+00
#rwgt            1           1   3.5274555173671514E-002           8      271084           0
</event>
<event>
      5   9999  3.79277E-02  7.40506E+01 -1.00000E+00  1.29995E-01
      21    -1     0     0   512   501  0.000000000E+00  0.000000000E+00  1.675343799E+03  1.675343799E+03  0.000000000E+00  0.00000E+00  9.000E+00
      21    -1     0     0   501   502  0.000000000E+00  0.000000000E+00 -2.894395040E+02  2.894395040E+02  0.000000000E+00  0.00000E+00  9.000E+00
      25     1     1     2     0     0  9.367192335E+01  2.430797117E+02 -4.454137586E+01  2.923544246E+02  1.250000000E+02  0.00000E+00  9.000E+00
      25     1     1     2     0     0 -3.617343278E+01 -1.964169081E+02 -4.419997519E+00  2.356536768E+02  1.250000000E+02  0.00000E+00  9.000E+00
      21     1     1     2   512   502 -5.749849057E+01 -4.666280356E+01  1.434865668E+03  1.436775201E+03  1.525878906E-05  0.00000E+00  9.000E+00
#rwgt            1           1   4.0106105142020065E-002           8      271154           0
</event>
<event>
      5   9999  3.79277E-02  2.51878E+01 -1.00000E+00  1.58508E-01
      21    -1     0     0   502   501  0.000000000E+00  0.000000000E+00  2.689665974E+01  2.689665974E+01  0.000000000E+00  0.00000E+00  9.000E+00
       2    -1     0     0   501     0  0.000000000E+00  0.000000000E+00 -2.733323286E+03  2.733323286E+03  0.000000000E+00  0.00000E+00  9.000E+00
      25     1     1     2     0     0 -7.601436401E+00 -2.193232472E+01 -1.571930228E+02  2.021718455E+02  1.250000000E+02  0.00000E+00  9.000E+00
      25     1     1     2     0     0  3.143535428E+01  3.007904405E+01 -1.013234723E+03  1.021842715E+03  1.250000000E+02  0.00000E+00  9.000E+00
       2     1     1     2   502     0 -2.383391788E+01 -8.146719330E+00 -1.535998880E+03  1.536205384E+03  0.000000000E+00  0.00000E+00  9.000E+00
#rwgt            1           1   1.7356146488211488E-002           8      271228           0
</event>
<event>
      5   9999  3.79277E-02  6.81519E+01 -1.00000E+00  1.31812E-01
       2    -1     0     0   502     0  0.000000000E+00  0.000000000E+00  6.959334228E+02  6.959334228E+02  0.000000000E+00  0.00000E+00  9.000E+00
      21    -1     0     0   501   502  0.000000000E+00  0.000000000E+00 -2.761472466E+02  2.761472466E+02  0.000000000E+00  0.00000E+00  9.000E+00
      25     1     1     2     0     0 -1.404729627E+02  1.715197757E+02  1.181611662E+02  2.806042550E+02  1.250000000E+02  0.00000E+00  9.000E+00
      25     1     1     2     0     0  1.234049228E+02 -2.374998138E+02 -7.820973870E+01  3.055760131E+02  1.250000000E+02  0.00000E+00  9.000E+00
       2     1     1     2   501     0  1.706803991E+01  6.598003814E+01  3.798347487E+02  3.859004013E+02  0.000000000E+00  0.00000E+00  9.000E+00
#rwgt            1           1   2.1244979510744874E-002           8      271403           0
</event>
<event>
      5   9999  3.79277E-02  2.26997E+01 -1.00000E+00  1.61956E-01
      21    -1     0     0   502   501  0.000000000E+00  0.000000000E+00  8.603755952E+02  8.603755952E+02  0.000000000E+00  0.00000E+00  9.000E+00
      21    -1     0     0   501   511  0.000000000E+00  0.000000000E+00 -1.116561263E+02  1.116561263E+02  0.000000000E+00  0.00000E+00  9.000E+00
      25     1     1     2     0     0  1.033399494E+02 -2.095992683E+02  3.573009116E+02  4.448594607E+02  1.250000000E+02  0.00000E+00  9.000E+00
      25     1     1     2     0     0 -1.260356138E+02  2.100272506E+02  4.127861079E+02  4.959977750E+02  1.250000000E+02  0.00000E+00  9.000E+00
      21     1     1     2   502   511  2.269566439E+01 -4.279822946E-01 -2.136755049E+01  3.117448580E+01  8.596304120E-07  0.00000E+00  9.000E+00
#rwgt            1           1   1.8237557055459187E-002           8      271584           0
</event>
<event>
      5   9999  3.79277E-02  8.54677E+01 -1.00000E+00  1.26975E-01
      21    -1     0     0   502   501  0.000000000E+00  0.000000000E+00  1.187177951E+02  1.187177951E+02  0.000000000E+00  0.00000E+00  9.000E+00
       2    -1     0     0   501     0  0.000000000E+00  0.000000000E+00 -2.012504468E+03  2.012504468E+03  0.000000000E+00  0.00000E+00  9.000E+00
      25     1     1     2     0     0 -4.064698327E+01 -1.449731303E+02 -1.149083308E+02  2.269323913E+02  1.250000000E+02  0.00000E+00  9.000E+00
      25     1     1     2     0     0  1.173013414E+02  1.827730664E+02 -1.934646266E+02  3.165740991E+02  1.250000000E+02  0.00000E+00  9.000E+00
       2     1     1     2   502     0 -7.665435814E+01 -3.779993610E+01 -1.585413715E+03  1.587715772E+03  2.157918644E-05  0.00000E+00  9.000E+00
#rwgt            1           1   4.1109879670899470E-002           8      271772           0
</event>
<event>
      5   9999  3.79277E-02  4.00720E+01 -1.00000E+00  1.44792E-01
       2    -1     0     0   502     0  0.000000000E+00  0.000000000E+00  1.936997849E+03  1.936997849E+03  0.000000000E+00  0.00000E+00  9.000E+00
      21    -1     0     0   501   502  0.000000000E+00  0.000000000E+00 -9.138681168E+01  9.138681168E+01  0.000000000E+00  0.00000E+00  9.000E+00
      25     1     1     2     0     0 -5.726795455E+01  3.507514381E+01 -6.579313076E+00  1.420498916E+02  1.250000000E+02  0.00000E+00  9.000E+00
      25     1     1     2     0     0  7.084368351E+01  2.627197860E+00  2.902086997E+02  3.238391870E+02  1.250000000E+02  0.00000E+00  9.000E+00
       2     1     1     2   501     0 -1.357572897E+01 -3.770234167E+01  1.561981651E+03  1.562495583E+03  0.000000000E+00  0.00000E+00  9.000E+00
#rwgt            1           1   3.7217693584943243E-002           8      271996           0
</event>
<event>
      5   9999  3.79277E-02  1.17543E+02 -1.00000E+00  1.20751E-01
      21    -1     0     0   502   501  0.000000000E+00  0.000000000E+00  5.295599744E+02  5.295599744E+02  0.000000000E+00  0.00000E+00  9.000E+00
      21    -1     0     0   511   502  0.000000000E+00  0.000000000E+00 -6.314369011E+02  6.314369011E+02  0.000000000E+00  0.00000E+00  9.000E+00
      25     1     1     2     0     0  4.129624247E+02  3.364458798E+02  1.086579432E+01  5.472447896E+02  1.250000000E+02  0.00000E+00  9.000E+00
      25     1     1     2     0     0 -2.954214773E+02 -3.357632628E+02 -2.134466739E+01  4.648563356E+02  1.250000000E+02  0.00000E+00  9.000E+00
      21     1     1     2   511   501 -1.175409474E+02 -6.826170035E-01 -9.139805363E+01  1.488957504E+02  2.336015456E-06  0.00000E+00  9.000E+00
#rwgt            1           1   8.1717056608215086E-002           8      272126           0
</event>
<event>
      5   9999  3.79277E-02  5.71541E+01 -1.00000E+00  1.35841E-01
      21    -1     0     0   502   501  0.000000000E+00  0.000000000E+00  4.058826036E+01  4.058826036E+01  0.000000000E+00  0.00000E+00  9.000E+00
      21    -1     0     0   512   502  0.000000000E+00  0.000000000E+00 -2.219498685E+03  2.219498685E+03  0.000000000E+00  0.00000E+00  9.000E+00
      25     1     1     2     0     0  1.565260278E+02 -4.265501341E+01 -9.255375811E+02  9.479265064E+02  1.250000000E+02  0.00000E+00  9.000E+00
      25     1     1     2     0     0 -2.066615345E+02  1.521384773E+01 -4.885319270E+02  5.451870273E+02  1.250000000E+02  0.00000E+00  9.000E+00
      21     1     1     2   512   501  5.013550673E+01  2.744116567E+01 -7.648409164E+02  7.669734115E+02  0.000000000E+00  0.00000E+00  9.000E+00
#rwgt            1           1   5.9377160372919402E-002           8      272254           0
</event>
<event>
      5   9999  3.79277E-02  2.77026E+01 -1.00000E+00  1.55483E-01
      21    -1     0     0   502   511  0.000000000E+00  0.000000000E+00  2.570951896E+02  2.570951896E+02  0.000000000E+00  0.00000E+00  9.000E+00
      21    -1     0     0   501   502  0.000000000E+00  0.000000000E+00 -1.817946231E+02  1.817946231E+02  0.000000000E+00  0.00000E+00  9.000E+00
      25     1     1     2     0     0  5.670064445E-01  1.531413176E+02 -1.276780403E+01  1.980924064E+02  1.250000000E+02  0.00000E+00  9.000E+00
      25     1     1     2     0     0 -2.788070277E+01 -1.485159654E+02  7.295904925E+01  2.092423199E+02  1.250000000E+02  0.00000E+00  9.000E+00
      21     1     1     2   501   511  2.731369632E+01 -4.625352194E+00  1.510932122E+01  3.155508639E+01  2.920019320E-07  0.00000E+00  9.000E+00
#rwgt            1           1   4.7440222703781572E-002           8      272346           0
</event>
<event>
      5   9999  3.79277E-02  1.10020E+01 -1.00000E+00  1.91082E-01
      21    -1     0     0   502   501  0.000000000E+00  0.000000000E+00  4.786703435E+02  4.786703435E+02  0.000000000E+00  0.00000E+00  9.000E+00
      21    -1     0     0   501   512  0.000000000E+00  0.000000000E+00 -4.468506559E+02  4.468506559E+02  0.000000000E+00  0.00000E+00  9.000E+00
      25     1     1     2     0     0 -1.166918955E+02 -7.848893299E+01  2.884310901E+02  3.443762547E+02  1.250000000E+02  0.00000E+00  9.000E+00
      25     1     1     2     0     0  1.276924494E+02  7.831012572E+01  1.035098695E+02  2.208554516E+02  1.250000000E+02  0.00000E+00  9.000E+00
      21     1     1     2   502   512 -1.100055387E+01  1.788072699E-01 -3.601212720E+02  3.602892931E+02  5.394796609E-06  0.00000E+00  9.000E+00
#rwgt            1           1   3.0092503203185024E-002           8      272675           0
</event>
<event>
      5   9999  3.79277E-02  4.48749E+01 -1.00000E+00  1.41809E-01
      21    -1     0     0   502   501  0.000000000E+00  0.000000000E+00  1.061162386E+03  1.061162386E+03  0.000000000E+00  0.00000E+00  9.000E+00
      -3    -1     0     0     0   502  0.000000000E+00  0.000000000E+00 -1.070211903E+02  1.070211903E+02  0.000000000E+00  0.00000E+00  9.000E+00
      25     1     1     2     0     0 -1.620360771E+02 -6.556212685E+01  7.115522335E+02  7.432937937E+02  1.250000000E+02  0.00000E+00  9.000E+00
      25     1     1     2     0     0  1.683220190E+02  1.099945521E+02  2.798456447E+02  3.665647125E+02  1.250000000E+02  0.00000E+00  9.000E+00
      -3     1     1     2     0   501 -6.285941924E+00 -4.443242526E+01 -3.725668211E+01  5.832507044E+01  1.719260824E-06  0.00000E+00  9.000E+00
#rwgt            1           1   6.2874485268046315E-002           8      272893           0
</event>
<event>
      5   9999  3.79277E-02  9.37226E+01 -1.00000E+00  1.25108E-01
      21    -1     0     0   511   501  0.000000000E+00  0.000000000E+00  5.644352824E+01  5.644352824E+01  0.000000000E+00  0.00000E+00  9.000E+00
      21    -1     0     0   501   502  0.000000000E+00  0.000000000E+00 -1.393372147E+03  1.393372147E+03  0.000000000E+00  0.00000E+00  9.000E+00
      25     1     1     2     0     0  1.724091972E+02 -3.620314440E+00 -9.958959588E+02  1.018416319E+03  1.250000000E+02  0.00000E+00  9.000E+00
      25     1     1     2     0     0 -8.973210699E+01  4.776130969E+01 -1.574369709E+02  2.252651627E+02  1.250000000E+02  0.00000E+00  9.000E+00
      21     1     1     2   511   502 -8.267709019E+01 -4.414099525E+01 -1.835956887E+02  2.061341932E+02  0.000000000E+00  0.00000E+00  9.000E+00
#rwgt            1           1   4.2056221163579890E-002           8      272989           0
</event>
<event>
      5   9999  3.79277E-02  6.22027E+01 -1.00000E+00  1.33872E-01
      21    -1     0     0   502   512  0.000000000E+00  0.000000000E+00  4.164002037E+01  4.164002037E+01  0.000000000E+00  0.00000E+00  9.000E+00
      21    -1     0     0   501   502  0.000000000E+00  0.000000000E+00 -1.174362101E+03  1.174362101E+03  0.000000000E+00  0.00000E+00  9.000E+00
      25     1     1     2     0     0 -7.611044280E+01 -8.335047506E+01 -3.193590345E+02  3.610474956E+02  1.250000000E+02  0.00000E+00  9.000E+00
      25     1     1     2     0     0  2.509572957E+01  1.189408614E+02 -7.323268764E+02  7.527977006E+02  1.250000000E+02  0.00000E+00  9.000E+00
      21     1     1     2   501   512  5.101471323E+01 -3.559038632E+01 -8.103617020E+01  1.021569256E+02  2.336015456E-06  0.00000E+00  9.000E+00
#rwgt            1           1   4.5590111440911733E-002           8      273124           0
</event>
<event>
      5   9999  3.79277E-02  1.22554E+02 -1.00000E+00  1.19981E-01
       4    -1     0     0   502     0  0.000000000E+00  0.000000000E+00  8.812160300E+01  8.812160300E+01  0.000000000E+00  0.00000E+00  9.000E+00
      21    -1     0     0   501   502  0.000000000E+00  0.000000000E+00 -2.072968637E+03  2.072968637E+03  0.000000000E+00  0.00000E+00  9.000E+00
      25     1     1     2     0     0 -3.742793132E+01 -8.618657566E+01 -1.601950453E+03  1.609564919E+03  1.250000000E+02  0.00000E+00  9.000E+00
      25     1     1     2     0     0 -6.139299895E+01  1.586708760E+02 -3.729623326E+02  4.285690712E+02  1.250000000E+02  0.00000E+00  9.000E+00
       4     1     1     2   501     0  9.882093028E+01 -7.248430032E+01 -9.934248686E+00  1.229562497E+02  1.608221240E-06  0.00000E+00  9.000E+00
#rwgt            1           1  0.11014343945179986                8      273505           0
</event>
<event>
      5   9999  3.79277E-02  4.86398E+01 -1.00000E+00  1.39762E-01
      21    -1     0     0   502   501  0.000000000E+00  0.000000000E+00  7.783600218E+01  7.783600218E+01  0.000000000E+00  0.00000E+00  9.000E+00
      21    -1     0     0   511   502  0.000000000E+00  0.000000000E+00 -9.850321176E+02  9.850321176E+02  0.000000000E+00  0.00000E+00  9.000E+00
      25     1     1     2     0     0 -1.495688235E+02  7.832104795E+01 -4.844925615E+02  5.280748637E+02  1.250000000E+02  0.00000E+00  9.000E+00
      25     1     1     2     0     0  1.086232438E+02 -5.206681210E+01 -8.442382276E+01  1.930345665E+02  1.250000000E+02  0.00000E+00  9.000E+00
      21     1     1     2   511   501  4.094557976E+01 -2.625423586E+01 -3.382797312E+02  3.417586896E+02  0.000000000E+00  0.00000E+00  9.000E+00
#rwgt            1           1   3.5185936685512391E-002           8      273592           0
</event>
<event>
      5   9999  3.79277E-02  2.41672E+01 -1.00000E+00  1.59861E-01
      21    -1     0     0   502   501  0.000000000E+00  0.000000000E+00  9.378622360E+02  9.378622360E+02  0.000000000E+00  0.00000E+00  9.000E+00
      21    -1     0     0   501   512  0.000000000E+00  0.000000000E+00 -1.565672340E+02  1.565672340E+02  0.000000000E+00  0.00000E+00  9.000E+00
      25     1     1     2     0     0 -2.185138813E+02 -2.353807196E+02  4.671211683E+02  5.804994276E+02  1.250000000E+02  0.00000E+00  9.000E+00
      25     1     1     2     0     0  2.180183327E+02  2.595427888E+02  3.263660074E+02  4.868616060E+02  1.250000000E+02  0.00000E+00  9.000E+00
      21     1     1     2   502   512  4.955485416E-01 -2.416206917E+01 -1.219217375E+01  2.706843652E+01  1.685873940E-07  0.00000E+00  9.000E+00
#rwgt            1           1   4.0480005680010624E-002           8      273741           0
</event>
<event>
      5   9999  3.79277E-02  3.08209E+01 -1.00000E+00  1.52230E-01
      21    -1     0     0   502   501  0.000000000E+00  0.000000000E+00  3.358510930E+02  3.358510930E+02  0.000000000E+00  0.00000E+00  9.000E+00
      21    -1     0     0   511   502  0.000000000E+00  0.000000000E+00 -6.646346450E+02  6.646346450E+02  0.000000000E+00  0.00000E+00  9.000E+00
      25     1     1     2     0     0 -2.065454687E+02 -2.813816612E+02  1.026427185E+02  3.847040389E+02  1.250000000E+02  0.00000E+00  9.000E+00
      25     1     1     2     0     0  1.871082873E+02  2.574625650E+02 -2.301928266E+02  4.122016751E+02  1.250000000E+02  0.00000E+00  9.000E+00
      21     1     1     2   511   501  1.943718142E+01  2.391909612E+01 -2.012334440E+02  2.035800240E+02  2.697398305E-06  0.00000E+00  9.000E+00
#rwgt            1           1   4.8555877015942564E-002           8      274070           0
</event>
<event>
      5   9999  3.79277E-02  5.84308E+01 -1.00000E+00  1.35321E-01
      -1    -1     0     0     0   501  0.000000000E+00  0.000000000E+00  3.119608975E+02  3.119608975E+02  0.000000000E+00  0.00000E+00  9.000E+00
      21    -1     0     0   501   502  0.000000000E+00  0.000000000E+00 -3.581717806E+02  3.581717806E+02  0.000000000E+00  0.00000E+00  9.000E+00
      25     1     1     2     0     0  1.081957006E+02  1.195601885E+02 -1.035111888E+02  2.287804941E+02  1.250000000E+02  0.00000E+00  9.000E+00
      25     1     1     2     0     0 -5.536620810E+01 -1.445242001E+02 -1.349663035E+02  2.404029212E+02  1.250000000E+02  0.00000E+00  9.000E+00
      -1     1     1     2     0   502 -5.282949247E+01  2.496401168E+01  1.922666093E+02  2.009492628E+02  2.697398305E-06  0.00000E+00  9.000E+00
#rwgt            1           1   4.2327215326253685E-002           8      274310           0
</event>
<event>
      5   9999  3.79277E-02  2.64765E+01 -1.00000E+00  1.56907E-01
      21    -1     0     0   502   511  0.000000000E+00  0.000000000E+00  1.066849480E+02  1.066849480E+02  0.000000000E+00  0.00000E+00  9.000E+00
      21    -1     0     0   501   502  0.000000000E+00  0.000000000E+00 -4.578818474E+02  4.578818474E+02  0.000000000E+00  0.00000E+00  9.000E+00
      25     1     1     2     0     0  4.256589327E+01 -5.980270366E+01 -3.508021604E+02  3.795726207E+02  1.250000000E+02  0.00000E+00  9.000E+00
      25     1     1     2     0     0 -4.463841055E+01  8.619797482E+01 -3.729225807E+00  1.583085143E+02  1.250000000E+02  0.00000E+00  9.000E+00
      21     1     1     2   501   511  2.072517276E+00 -2.639527116E+01  3.334486790E+00  2.668566038E+01  4.214684851E-08  0.00000E+00  9.000E+00
#rwgt            1           1   4.4174735340325830E-002           8      274386           0
</event>
<event>
      5   9999  3.79277E-02  2.00187E+02 -1.00000E+00  1.11633E-01
      21    -1     0     0   502   501  0.000000000E+00  0.000000000E+00  3.496169174E+02  3.496169174E+02  0.000000000E+00  0.00000E+00  9.000E+00
      21    -1     0     0   512   502  0.000000000E+00  0.000000000E+00 -3.238838568E+02  3.238838568E+02  0.000000000E+00  0.00000E+00  9.000E+00
      25     1     1     2     0     0 -2.493809080E+01  1.276549062E+01 -9.010817897E+01  1.566184856E+02  1.250000000E+02  0.00000E+00  9.000E+00
      25     1     1     2     0     0  1.942014641E+02  9.412036084E+01  1.789833193E+02  3.069737441E+02  1.250000000E+02  0.00000E+00  9.000E+00
      21     1     1     2   512   501 -1.692633733E+02 -1.068858515E+02 -6.314207972E+01  2.099085444E+02  2.780414531E-06  0.00000E+00  9.000E+00
#rwgt            1           1   4.4261023067720770E-002           8      274542           0
</event>
<event>
      5   9999  3.79277E-02  1.25854E+02 -1.00000E+00  1.19497E-01
      21    -1     0     0   502   501  0.000000000E+00  0.000000000E+00  3.420508876E+03  3.420508876E+03  0.000000000E+00  0.00000E+00  9.000E+00
      21    -1     0     0   501   511  0.000000000E+00  0.000000000E+00 -5.128531060E+01  5.128531060E+01  0.000000000E+00  0.00000E+00  9.000E+00
      25     1     1     2     0     0 -2.066817553E+02 -1.837578770E+02  2.196748132E+03  2.217613957E+03  1.250000000E+02  0.00000E+00  9.000E+00
      25     1     1     2     0     0  1.153308466E+02  2.703278238E+02  8.333916559E+02  8.924936911E+02  1.250000000E+02  0.00000E+00  9.000E+00
      21     1     1     2   502   511  9.135090879E+01 -8.656994684E+01  3.390837776E+02  3.616865390E+02  5.394796609E-06  0.00000E+00  9.000E+00
#rwgt            2          11   2.0141151692674056E-003           8      274840           0
</event>
<event>
      5   9999  3.79277E-02  4.80290E+01 -1.00000E+00  1.40079E-01
      21    -1     0     0   512   501  0.000000000E+00  0.000000000E+00  5.416340935E+01  5.416340935E+01  0.000000000E+00  0.00000E+00  9.000E+00
      21    -1     0     0   501   502  0.000000000E+00  0.000000000E+00 -9.227630346E+02  9.227630346E+02  0.000000000E+00  0.00000E+00  9.000E+00
      25     1     1     2     0     0  6.076654770E+01 -1.088240280E+02 -2.282572561E+02  2.885508921E+02  1.250000000E+02  0.00000E+00  9.000E+00
      25     1     1     2     0     0 -3.443211594E+01  6.865839428E+01 -6.184116627E+02  6.355765337E+02  1.250000000E+02  0.00000E+00  9.000E+00
      21     1     1     2   512   502 -2.633443176E+01  4.016563369E+01 -2.193070650E+01  5.279901811E+01  1.011524364E-06  0.00000E+00  9.000E+00
#rwgt            1           1   5.2635959172042120E-002           8      274890           0
</event>
<event>
      5   9999  3.79277E-02  4.18339E+01 -1.00000E+00  1.43643E-01
      21    -1     0     0   502   501  0.000000000E+00  0.000000000E+00  3.173137465E+02  3.173137465E+02  0.000000000E+00  0.00000E+00  9.000E+00
      21    -1     0     0   501   511  0.000000000E+00  0.000000000E+00 -2.319136326E+02  2.319136326E+02  0.000000000E+00  0.00000E+00  9.000E+00
      25     1     1     2     0     0 -3.337782425E+01 -1.593137464E+02 -7.771314100E+01  2.194522299E+02  1.250000000E+02  0.00000E+00  9.000E+00
      25     1     1     2     0     0 -3.122372632E+00  1.388733929E+02  2.002047305E+02  2.738658478E+02  1.250000000E+02  0.00000E+00  9.000E+00
      21     1     1     2   502   511  3.650019689E+01  2.044035351E+01 -3.709147561E+01  5.590930144E+01  1.348699152E-06  0.00000E+00  9.000E+00
#rwgt            1           1   2.2272794760390631E-002           8      274979           0
</event>
<event>
      5   9999  3.79277E-02  9.79643E+01 -1.00000E+00  1.24231E-01
      21    -1     0     0   502   501  0.000000000E+00  0.000000000E+00  1.668091903E+02  1.668091903E+02  0.000000000E+00  0.00000E+00  9.000E+00
       1    -1     0     0   501     0  0.000000000E+00  0.000000000E+00 -2.248801189E+03  2.248801189E+03  0.000000000E+00  0.00000E+00  9.000E+00
      25     1     1     2     0     0 -9.010178253E+01 -9.299599915E+01  5.108838164E+01  1.870871717E+02  1.250000000E+02  0.00000E+00  9.000E+00
      25     1     1     2     0     0  1.236107612E+02  9.408599649E-01 -1.195188866E+02  2.125800314E+02  1.250000000E+02  0.00000E+00  9.000E+00
       1     1     1     2   502     0 -3.350897862E+01  9.205513918E+01 -2.013561494E+03  2.015943176E+03  3.051757812E-05  0.00000E+00  9.000E+00
#rwgt            2          12   1.5043124495088087E-003           8      275142           0
</event>
<event>
      5   9999  3.79277E-02  3.28148E+01 -1.00000E+00  1.50383E-01
      21    -1     0     0   502   511  0.000000000E+00  0.000000000E+00  9.936365005E+01  9.936365005E+01  0.000000000E+00  0.00000E+00  9.000E+00
      21    -1     0     0   501   502  0.000000000E+00  0.000000000E+00 -3.812656282E+02  3.812656282E+02  0.000000000E+00  0.00000E+00  9.000E+00
      25     1     1     2     0     0 -1.351236182E+01 -8.688013336E+01 -2.446724074E+02  2.884793380E+02  1.250000000E+02  0.00000E+00  9.000E+00
      25     1     1     2     0     0  4.570253306E+01  8.050819238E+01 -3.359115892E+01  1.591340835E+02  1.250000000E+02  0.00000E+00  9.000E+00
      21     1     1     2   501   511 -3.219017125E+01  6.371940978E+00 -3.638411767E+00  3.301585675E+01  8.930757084E-07  0.00000E+00  9.000E+00
#rwgt            1           1   4.9082415202776689E-002           8      275176           0
</event>
<event>
      5   9999  3.79277E-02  4.16896E+01 -1.00000E+00  1.43735E-01
      21    -1     0     0   502   501  0.000000000E+00  0.000000000E+00  3.190135018E+02  3.190135018E+02  0.000000000E+00  0.00000E+00  9.000E+00
      21    -1     0     0   501   512  0.000000000E+00  0.000000000E+00 -7.049645740E+02  7.049645740E+02  0.000000000E+00  0.00000E+00  9.000E+00
      25     1     1     2     0     0 -2.222775991E+02 -1.698988517E+02  4.101059821E-01  3.064279998E+02  1.250000000E+02  0.00000E+00  9.000E+00
      25     1     1     2     0     0  2.344232619E+02  1.300177154E+02  3.164985535E+01  2.974652675E+02  1.250000000E+02  0.00000E+00  9.000E+00
      21     1     1     2   502   512 -1.214566274E+01  3.988113632E+01 -4.180110336E+02  4.200848085E+02  7.629394531E-06  0.00000E+00  9.000E+00
#rwgt            1           1   3.6548798201040004E-002           8      275311           0
</event>
<event>
      5   9999  3.79277E-02  1.57288E+01 -1.00000E+00  1.75464E-01
      21    -1     0     0   502   501  0.000000000E+00  0.000000000E+00  1.544312019E+02  1.544312019E+02  0.000000000E+00  0.00000E+00  9.000E+00
      21    -1     0     0   511   502  0.000000000E+00  0.000000000E+00 -1.899719121E+02  1.899719121E+02  0.000000000E+00  0.00000E+00  9.000E+00
      25     1     1     2     0     0  5.314333712E+01  2.612581834E+01 -1.002839782E+02  1.708468582E+02  1.250000000E+02  0.00000E+00  9.000E+00
      25     1     1     2     0     0 -4.809800923E+01 -1.122818777E+01  7.582320808E+01  1.543167184E+02  1.250000000E+02  0.00000E+00  9.000E+00
      21     1     1     2   511   501 -5.045327889E+00 -1.489763057E+01 -1.107994002E+01  1.923953744E+01  0.000000000E+00  0.00000E+00  9.000E+00
#rwgt            1           1   3.7082364107092917E-002           8      275411           0
</event>
<event>
      5   9999  3.79277E-02  2.46134E+01 -1.00000E+00  1.59259E-01
      21    -1     0     0   502   501  0.000000000E+00  0.000000000E+00  7.968957553E+02  7.968957553E+02  0.000000000E+00  0.00000E+00  9.000E+00
      21    -1     0     0   512   502  0.000000000E+00  0.000000000E+00 -4.148017153E+01  4.148017153E+01  0.000000000E+00  0.00000E+00  9.000E+00
      25     1     1     2     0     0  3.590707855E+01 -8.953324971E+01  2.448668032E+02  2.913593527E+02  1.250000000E+02  0.00000E+00  9.000E+00
      25     1     1     2     0     0 -5.867864000E+01  9.887548909E+01  4.679667537E+02  4.978327306E+02  1.250000000E+02  0.00000E+00  9.000E+00
      21     1     1     2   512   501  2.277156145E+01 -9.342239386E+00  4.258202689E+01  4.918384351E+01  0.000000000E+00  0.00000E+00  9.000E+00
#rwgt            1           1   3.4553224615571858E-002           8      275605           0
</event>
<event>
      5   9999  3.79277E-02  8.09500E+01 -1.00000E+00  1.28102E-01
      21    -1     0     0   511   501  0.000000000E+00  0.000000000E+00  6.925597107E+01  6.925597107E+01  0.000000000E+00  0.00000E+00  9.000E+00
      21    -1     0     0   501   502  0.000000000E+00  0.000000000E+00 -1.088877211E+03  1.088877211E+03  0.000000000E+00  0.00000E+00  9.000E+00
      25     1     1     2     0     0  1.177409150E+02  1.292736706E+02 -2.796838172E+02  3.527359389E+02  1.250000000E+02  0.00000E+00  9.000E+00
      25     1     1     2     0     0 -4.374195981E+01 -9.645523496E+01 -6.924041573E+02  7.115233576E+02  1.250000000E+02  0.00000E+00  9.000E+00
      21     1     1     2   511   502 -7.399895520E+01 -3.281843569E+01 -4.753326571E+01  9.387388583E+01  6.743495762E-07  0.00000E+00  9.000E+00
#rwgt            1           1   3.9174491977538257E-002           8      275792           0
</event>
<event>
      5   9999  3.79277E-02  4.58005E+01 -1.00000E+00  1.41285E-01
      21    -1     0     0   502   501  0.000000000E+00  0.000000000E+00  2.539810074E+02  2.539810074E+02  0.000000000E+00  0.00000E+00  9.000E+00
      21    -1     0     0   512   502  0.000000000E+00  0.000000000E+00 -2.502641227E+02  2.502641227E+02  0.000000000E+00  0.00000E+00  9.000E+00
      25     1     1     2     0     0 -1.763082618E+02 -7.580016652E+01 -3.098162999E+01  2.311171344E+02  1.250000000E+02  0.00000E+00  9.000E+00
      25     1     1     2     0     0  1.445698080E+02  1.088207149E+02  4.866413998E+01  2.252455902E+02  1.250000000E+02  0.00000E+00  9.000E+00
      21     1     1     2   512   501  3.173845379E+01 -3.302054839E+01 -1.396562521E+01  4.788240546E+01  3.371747881E-07  0.00000E+00  9.000E+00
#rwgt            1           1   3.7215126485739172E-002           8      276007           0
</event>
<event>
      5   9999  3.79277E-02  3.08443E+01 -1.00000E+00  1.52207E-01
      21    -1     0     0   511   501  0.000000000E+00  0.000000000E+00  1.334616941E+03  1.334616941E+03  0.000000000E+00  0.00000E+00  9.000E+00
      21    -1     0     0   501   502  0.000000000E+00  0.000000000E+00 -1.836250965E+02  1.836250965E+02  0.000000000E+00  0.00000E+00  9.000E+00
      25     1     1     2     0     0 -2.261929380E+02 -8.935416259E+01  4.492629351E+01  2.771115000E+02  1.250000000E+02  0.00000E+00  9.000E+00
      25     1     1     2     0     0  1.958360260E+02  9.481590581E+01  1.666958016E+02  3.012545358E+02  1.250000000E+02  0.00000E+00  9.000E+00
      21     1     1     2   511   502  3.035691202E+01 -5.461743222E+00  9.393697498E+02  9.398760022E+02  0.000000000E+00  0.00000E+00  9.000E+00
#rwgt            1           1   3.2255849586912126E-002           8      276172           0
</event>
<event>
      5   9999 -3.79277E-02  4.66405E+01 -1.00000E+00  1.40821E-01
      21    -1     0     0   502   501  0.000000000E+00  0.000000000E+00  3.822650435E+01  3.822650435E+01  0.000000000E+00  0.00000E+00  9.000E+00
       2    -1     0     0   501     0  0.000000000E+00  0.000000000E+00 -1.931953159E+03  1.931953159E+03  0.000000000E+00  0.00000E+00  9.000E+00
      25     1     1     2     0     0 -4.282507988E+00  1.000588206E+02 -3.325502549E+02  3.691135049E+02  1.250000000E+02  0.00000E+00  9.000E+00
      25     1     1     2     0     0  3.961602295E+01 -1.305035705E+02 -4.200311428E+02  4.589681602E+02  1.250000000E+02  0.00000E+00  9.000E+00
       2     1     1     2   502     0 -3.533351496E+01  3.044474989E+01 -1.141145257E+03  1.142097999E+03  0.000000000E+00  0.00000E+00  9.000E+00
#rwgt            1           1  -6.9666136041972804E-002           8      276356           0
</event>
<event>
      5   9999  3.79277E-02  4.59192E+01 -1.00000E+00  1.41219E-01
      21    -1     0     0   502   501  0.000000000E+00  0.000000000E+00  7.367015045E+02  7.367015045E+02  0.000000000E+00  0.00000E+00  9.000E+00
      21    -1     0     0   511   502  0.000000000E+00  0.000000000E+00 -3.421402464E+02  3.421402464E+02  0.000000000E+00  0.00000E+00  9.000E+00
      25     1     1     2     0     0  4.326738448E+01 -8.004662105E+01  6.183088386E+01  1.665160242E+02  1.250000000E+02  0.00000E+00  9.000E+00
      25     1     1     2     0     0 -6.162531954E+01  1.221365394E+02  6.067848703E+02  6.344508595E+02  1.250000000E+02  0.00000E+00  9.000E+00
      21     1     1     2   511   501  1.835793507E+01 -4.208991839E+01 -2.740544961E+02  2.778748673E+02  5.394796609E-06  0.00000E+00  9.000E+00
#rwgt            1           1   4.1706584606635476E-002           8      276471           0
</event>
<event>
      5   9999  3.79277E-02  2.10409E+01 -1.00000E+00  1.64571E-01
      21    -1     0     0   502   512  0.000000000E+00  0.000000000E+00  9.580346045E+02  9.580346045E+02  0.000000000E+00  0.00000E+00  9.000E+00
      21    -1     0     0   501   502  0.000000000E+00  0.000000000E+00 -1.441710980E+02  1.441710980E+02  0.000000000E+00  0.00000E+00  9.000E+00
      25     1     1     2     0     0  1.811127331E+01  1.850886921E+02  1.749460443E+02  2.842832401E+02  1.250000000E+02  0.00000E+00  9.000E+00
      25     1     1     2     0     0 -3.232970529E+01 -1.695787851E+02  3.783108554E+01  2.164679312E+02  1.250000000E+02  0.00000E+00  9.000E+00
      21     1     1     2   501   512  1.421843198E+01 -1.550990704E+01  6.010863766E+02  6.014545313E+02  7.629394531E-06  0.00000E+00  9.000E+00
#rwgt            1           1   3.4217029363529827E-002           8      276609           0
</event>
<event>
      5   9999  3.79277E-02  6.96098E+01 -1.00000E+00  1.31344E-01
      21    -1     0     0   511   501  0.000000000E+00  0.000000000E+00  3.060291867E+01  3.060291867E+01  0.000000000E+00  0.00000E+00  9.000E+00
      21    -1     0     0   501   502  0.000000000E+00  0.000000000E+00 -1.323850162E+03  1.323850162E+03  0.000000000E+00  0.00000E+00  9.000E+00
      25     1     1     2     0     0 -1.243972978E+02 -1.227461907E+00 -5.671638135E+02  5.939494808E+02  1.250000000E+02  0.00000E+00  9.000E+00
      25     1     1     2     0     0  7.149000709E+01 -4.400906235E+01 -5.708977037E+02  5.904208726E+02  1.250000000E+02  0.00000E+00  9.000E+00
      21     1     1     2   511   502  5.290729070E+01  4.523652426E+01 -1.551857260E+02  1.700827272E+02  3.814697266E-06  0.00000E+00  9.000E+00
#rwgt            1           1   5.4798560073600580E-002           8      276785           0
</event>
<event>
      5   9999  3.79277E-02  8.21944E+01 -1.00000E+00  1.27783E-01
      21    -1     0     0   502   501  0.000000000E+00  0.000000000E+00  1.193951683E+03  1.193951683E+03  0.000000000E+00  0.00000E+00  9.000E+00
       3    -1     0     0   501     0  0.000000000E+00  0.000000000E+00 -8.920084469E+01  8.920084469E+01  0.000000000E+00  0.00000E+00  9.000E+00
      25     1     1     2     0     0  5.559449018E+01  1.001211698E+02  1.694513846E+02  2.396951558E+02  1.250000000E+02  0.00000E+00  9.000E+00
      25     1     1     2     0     0 -1.104539107E+02 -3.891368749E+01  9.452671074E+02  9.606608381E+02  1.250000000E+02  0.00000E+00  9.000E+00
       3     1     1     2   502     0  5.485942050E+01 -6.120748234E+01 -9.967653557E+00  8.279653392E+01  2.489163043E-06  0.00000E+00  9.000E+00
#rwgt            1           1   3.3657181446123854E-002           8      276869           0
</event>
<event>
      5   9999  3.79277E-02  6.31622E+01 -1.00000E+00  1.33522E-01
      21    -1     0     0   502   511  0.000000000E+00  0.000000000E+00  2.263472321E+02  2.263472321E+02  0.000000000E+00  0.00000E+00  9.000E+00
      21    -1     0     0   501   502  0.000000000E+00  0.000000000E+00 -8.145939495E+02  8.145939495E+02  0.000000000E+00  0.00000E+00  9.000E+00
      25     1     1     2     0     0  1.135225171E+02  2.942231623E+02 -3.931876466E-01  3.392341164E+02  1.250000000E+02  0.00000E+00  9.000E+00
      25     1     1     2     0     0 -6.472670642E+01 -2.541178505E+02 -5.635731252E+02  6.340387180E+02  1.250000000E+02  0.00000E+00  9.000E+00
      21     1     1     2   501   511 -4.879581069E+01 -4.010531184E+01 -2.428040456E+01  6.766834729E+01  1.011524364E-06  0.00000E+00  9.000E+00
#rwgt            1           1   5.1816266576590969E-002           8      277121           0
</event>
<event>
      5   9999  3.79277E-02  2.14128E+01 -1.00000E+00  1.63960E-01
      21    -1     0     0   512   501  0.000000000E+00  0.000000000E+00  1.402829164E+02  1.402829164E+02  0.000000000E+00  0.00000E+00  9.000E+00
      21    -1     0     0   501   502  0.000000000E+00  0.000000000E+00 -3.866715536E+02  3.866715536E+02  0.000000000E+00  0.00000E+00  9.000E+00
      25     1     1     2     0     0  7.880971889E+01  1.035848252E+02 -9.940478997E+01  2.060269402E+02  1.250000000E+02  0.00000E+00  9.000E+00
      25     1     1     2     0     0 -7.193381509E+01 -8.330605351E+01 -2.020489251E+02  2.618456424E+02  1.250000000E+02  0.00000E+00  9.000E+00
      21     1     1     2   512   502 -6.875903796E+00 -2.027877173E+01  5.506507777E+01  5.908188746E+01  6.743495762E-07  0.00000E+00  9.000E+00
#rwgt            1           1   3.7986699901953393E-002           8      277284           0
</event>
<event>
      5   9999  3.79277E-02  7.79845E+01 -1.00000E+00  1.28888E-01
      21    -1     0     0   502   501  0.000000000E+00  0.000000000E+00  2.331199519E+02  2.331199519E+02  0.000000000E+00  0.00000E+00  9.000E+00
      21    -1     0     0   511   502  0.000000000E+00  0.000000000E+00 -4.865459615E+02  4.865459615E+02  0.000000000E+00  0.00000E+00  9.000E+00
      25     1     1     2     0     0  2.100139103E+02  8.654650448E+01 -1.561397230E+01  2.597401318E+02  1.250000000E+02  0.00000E+00  9.000E+00
      25     1     1     2     0     0 -2.426558498E+02 -1.573708416E+02 -2.006355708E+02  3.735332321E+02  1.250000000E+02  0.00000E+00  9.000E+00
      21     1     1     2   511   501  3.264193951E+01  7.082433708E+01 -3.717646651E+01  8.639254945E+01  0.000000000E+00  0.00000E+00  9.000E+00
#rwgt            1           1   4.3051466519268541E-002           8      277516           0
</event>
<event>
      5   9999  3.79277E-02  8.74070E+01 -1.00000E+00  1.26515E-01
      21    -1     0     0   502   501  0.000000000E+00  0.000000000E+00  1.213614080E+03  1.213614080E+03  0.000000000E+00  0.00000E+00  9.000E+00
      -3    -1     0     0     0   502  0.000000000E+00  0.000000000E+00 -1.705534799E+02  1.705534799E+02  0.000000000E+00  0.00000E+00  9.000E+00
      25     1     1     2     0     0 -8.337643501E+01  2.261038360E+02  3.029208471E+02  4.067685020E+02  1.250000000E+02  0.00000E+00  9.000E+00
      25     1     1     2     0     0  1.476349390E+02 -2.853560846E+02  8.002289530E+02  8.713297582E+02  1.250000000E+02  0.00000E+00  9.000E+00
      -3     1     1     2     0   501 -6.425850403E+01  5.925224852E+01 -6.008920035E+01  1.060692995E+02  2.523185073E-06  0.00000E+00  9.000E+00
#rwgt            2           8   1.7123747570112424E-005           8      277670           0
</event>
<event>
      5   9999  3.79277E-02  1.50841E+02 -1.00000E+00  1.16297E-01
      21    -1     0     0   502   511  0.000000000E+00  0.000000000E+00  8.360119993E+02  8.360119993E+02  0.000000000E+00  0.00000E+00  9.000E+00
      21    -1     0     0   501   502  0.000000000E+00  0.000000000E+00 -1.613011037E+02  1.613011037E+02  0.000000000E+00  0.00000E+00  9.000E+00
      25     1     1     2     0     0  1.607875269E+02  1.211948330E+02 -2.213689186E+01  2.380249112E+02  1.250000000E+02  0.00000E+00  9.000E+00
      25     1     1     2     0     0 -1.917034931E+01 -6.925707797E+01  4.193250872E+02  4.434214405E+02  1.250000000E+02  0.00000E+00  9.000E+00
      21     1     1     2   501   511 -1.416171776E+02 -5.193775504E+01  2.775227003E+02  3.158667513E+02  0.000000000E+00  0.00000E+00  9.000E+00
#rwgt            2          11   2.0637851711259045E-003           8      277869           0
</event>
<event>
      5   9999  3.79277E-02  4.78243E+01 -1.00000E+00  1.40187E-01
      21    -1     0     0   512   501  0.000000000E+00  0.000000000E+00  3.324398694E+02  3.324398694E+02  0.000000000E+00  0.00000E+00  9.000E+00
      21    -1     0     0   501   502  0.000000000E+00  0.000000000E+00 -1.019248420E+03  1.019248420E+03  0.000000000E+00  0.00000E+00  9.000E+00
      25     1     1     2     0     0 -2.610394673E+02  2.041140613E+02 -8.255009989E+02  8.982655803E+02  1.250000000E+02  0.00000E+00  9.000E+00
      25     1     1     2     0     0  2.136414338E+02 -1.977429890E+02  1.092768783E+01  3.170005777E+02  1.250000000E+02  0.00000E+00  9.000E+00
      21     1     1     2   512   502  4.739803357E+01 -6.371072256E+00  1.277647600E+02  1.364221318E+02  2.336015456E-06  0.00000E+00  9.000E+00
#rwgt            1           1  0.17865981524369523                8      277964           0
</event>
<event>
      5   9999  3.79277E-02  1.31370E+01 -1.00000E+00  1.82987E-01
      21    -1     0     0   502   501  0.000000000E+00  0.000000000E+00  1.747187693E+02  1.747187693E+02  0.000000000E+00  0.00000E+00  9.000E+00
      21    -1     0     0   511   502  0.000000000E+00  0.000000000E+00 -3.605016428E+02  3.605016428E+02  0.000000000E+00  0.00000E+00  9.000E+00
      25     1     1     2     0     0  1.548860290E+02 -5.305023384E+01  3.616080324E+01  2.091330031E+02  1.250000000E+02  0.00000E+00  9.000E+00
      25     1     1     2     0     0 -1.463556716E+02  4.305954418E+01 -1.370190730E+02  2.401527292E+02  1.250000000E+02  0.00000E+00  9.000E+00
      21     1     1     2   511   501 -8.530357358E+00  9.990689663E+00 -8.492460381E+01  8.593467990E+01  0.000000000E+00  0.00000E+00  9.000E+00
#rwgt            1           1   4.7206523475255467E-002           8      278156           0
</event>
<event>
      5   9999  3.79277E-02  2.14287E+01 -1.00000E+00  1.63934E-01
      21    -1     0     0   502   501  0.000000000E+00  0.000000000E+00  2.335816238E+02  2.335816238E+02  0.000000000E+00  0.00000E+00  9.000E+00
      21    -1     0     0   512   502  0.000000000E+00  0.000000000E+00 -7.159110485E+02  7.159110485E+02  0.000000000E+00  0.00000E+00  9.000E+00
      25     1     1     2     0     0 -2.607702303E+00 -2.935541870E+02  1.686141147E+01  3.195155208E+02  1.250000000E+02  0.00000E+00  9.000E+00
      25     1     1     2     0     0  8.968522012E+00  3.140170989E+02 -3.789995984E+02  5.078906067E+02  1.250000000E+02  0.00000E+00  9.000E+00
      21     1     1     2   512   501 -6.360819709E+00 -2.046291189E+01 -1.201912378E+02  1.220865448E+02  0.000000000E+00  0.00000E+00  9.000E+00
#rwgt            1           1   3.9531684925404313E-002           8      278338           0
</event>
<event>
      5   9999  3.79277E-02  5.19503E+01 -1.00000E+00  1.38134E-01
      21    -1     0     0   502   511  0.000000000E+00  0.000000000E+00  8.812141642E+01  8.812141642E+01  0.000000000E+00  0.00000E+00  9.000E+00
      21    -1     0     0   501   502  0.000000000E+00  0.000000000E+00 -1.683501734E+03  1.683501734E+03  0.000000000E+00  0.00000E+00  9.000E+00
      25     1     1     2     0     0  5.921698785E+01 -2.360829226E+01 -1.480740394E+03  1.487373900E+03  1.250000000E+02  0.00000E+00  9.000E+00
      25     1     1     2     0     0 -5.770464013E+01  7.553659732E+01 -1.533271851E+02  2.194762600E+02  1.250000000E+02  0.00000E+00  9.000E+00
      21     1     1     2   501   511 -1.512347723E+00 -5.192830507E+01  3.868726178E+01  6.477299041E+01  3.600041597E-06  0.00000E+00  9.000E+00
#rwgt            1           1   2.1002215586480060E-002           8      278546           0
</event>
<event>
      5   9999  3.79277E-02  1.76330E+01 -1.00000E+00  1.71013E-01
      21    -1     0     0   502   501  0.000000000E+00  0.000000000E+00  1.572288899E+02  1.572288899E+02  0.000000000E+00  0.00000E+00  9.000E+00
      21    -1     0     0   512   502  0.000000000E+00  0.000000000E+00 -2.226906110E+02  2.226906110E+02  0.000000000E+00  0.00000E+00  9.000E+00
      25     1     1     2     0     0  1.185766707E+01 -6.324870758E+01  8.431105346E+01  1.639340020E+02  1.250000000E+02  0.00000E+00  9.000E+00
      25     1     1     2     0     0  4.194073656E+00  5.595049365E+01 -1.397099781E+02  1.956832287E+02  1.250000000E+02  0.00000E+00  9.000E+00
      21     1     1     2   512   501 -1.605174073E+01  7.298213929E+00 -1.006279640E+01  2.030227028E+01  3.576278687E-07  0.00000E+00  9.000E+00
#rwgt            1           1   5.0756575420254038E-002           8      278661           0
</event>
<event>
      5   9999  3.79277E-02  4.61438E+01 -1.00000E+00  1.41094E-01
      21    -1     0     0   511   501  0.000000000E+00  0.000000000E+00  4.401078052E+02  4.401078052E+02  0.000000000E+00  0.00000E+00  9.000E+00
      21    -1     0     0   501   502  0.000000000E+00  0.000000000E+00 -2.099041145E+02  2.099041145E+02  0.000000000E+00  0.00000E+00  9.000E+00
      25     1     1     2     0     0  9.718821195E+01 -2.008417834E+02  1.288793370E+02  2.863875940E+02  1.250000000E+02  0.00000E+00  9.000E+00
      25     1     1     2     0     0 -1.054688035E+02  2.462365475E+02  5.989245990E+01  3.016093709E+02  1.250000000E+02  0.00000E+00  9.000E+00
      21     1     1     2   511   502  8.280591582E+00 -4.539476415E+01  4.143189376E+01  6.201495489E+01  0.000000000E+00  0.00000E+00  9.000E+00
#rwgt            1           1   3.7218871988938480E-002           8      278864           0
</event>
<event>
      5   9999  3.79277E-02  1.42527E+02 -1.00000E+00  1.17280E-01
      21    -1     0     0   512   501  0.000000000E+00  0.000000000E+00  5.091790063E+02  5.091790063E+02  0.000000000E+00  0.00000E+00  9.000E+00
      21    -1     0     0   501   502  0.000000000E+00  0.000000000E+00 -2.044152043E+02  2.044152043E+02  0.000000000E+00  0.00000E+00  9.000E+00
      25     1     1     2     0     0  1.864456187E+02  2.171872421E+01  1.700564273E+02  2.824497480E+02  1.250000000E+02  0.00000E+00  9.000E+00
      25     1     1     2     0     0 -1.300512501E+02 -1.526138858E+02  1.836716692E+00  2.362894397E+02  1.250000000E+02  0.00000E+00  9.000E+00
      21     1     1     2   512   502 -5.639436858E+01  1.308951616E+02  1.328706581E+02  1.948550228E+02  0.000000000E+00  0.00000E+00  9.000E+00
#rwgt            1           1   3.4879025613687303E-002           8      279002           0
</event>
<event>
      5   9999  3.79277E-02  2.40691E+01 -1.00000E+00  1.59995E-01
      21    -1     0     0   502   501  0.000000000E+00  0.000000000E+00  4.232816343E+02  4.232816343E+02  0.000000000E+00  0.00000E+00  9.000E+00
      21    -1     0     0   511   502  0.000000000E+00  0.000000000E+00 -4.515043511E+02  4.515043511E+02  0.000000000E+00  0.00000E+00  9.000E+00
      25     1     1     2     0     0 -1.990432632E+02 -3.118959368E+02 -1.413771077E+02  4.153429698E+02  1.250000000E+02  0.00000E+00  9.000E+00
      25     1     1     2     0     0  1.770757622E+02  3.217321590E+02  1.495894578E+02  4.157756770E+02  1.250000000E+02  0.00000E+00  9.000E+00
      21     1     1     2   511   501  2.196750094E+01 -9.836222182E+00 -3.643506690E+01  4.366733865E+01  8.259061849E-07  0.00000E+00  9.000E+00
#rwgt            1           1   4.2415887225395285E-002           8      279032           0
</event>
<event>
      5   9999  3.79277E-02  7.20576E+01 -1.00000E+00  1.30587E-01
       2    -1     0     0   502     0  0.000000000E+00  0.000000000E+00  3.130323297E+03  3.130323297E+03  0.000000000E+00  0.00000E+00  9.000E+00
      21    -1     0     0   501   502  0.000000000E+00  0.000000000E+00 -6.957562264E+01  6.957562264E+01  0.000000000E+00  0.00000E+00  9.000E+00
      25     1     1     2     0     0  2.789211680E+01  1.497150296E+02  1.747813565E+02  2.633744157E+02  1.250000000E+02  0.00000E+00  9.000E+00
      25     1     1     2     0     0 -9.476877627E+01 -1.228858858E+02  3.761249524E+02  4.256489653E+02  1.250000000E+02  0.00000E+00  9.000E+00
       2     1     1     2   501     0  6.687665948E+01 -2.682914383E+01  2.509841366E+03  2.510875539E+03  0.000000000E+00  0.00000E+00  9.000E+00
#rwgt            1           1   4.0098814393724001E-002           8      279283           0
</event>
<event>
      5   9999  3.79277E-02  3.42953E+01 -1.00000E+00  1.49110E-01
      21    -1     0     0   502   501  0.000000000E+00  0.000000000E+00  2.346148028E+02  2.346148028E+02  0.000000000E+00  0.00000E+00  9.000E+00
      21    -1     0     0   511   502  0.000000000E+00  0.000000000E+00 -1.452347170E+02  1.452347170E+02  0.000000000E+00  0.00000E+00  9.000E+00
      25     1     1     2     0     0  7.292634147E+01 -6.781576000E+00  1.181269340E+02  1.869310397E+02  1.250000000E+02  0.00000E+00  9.000E+00
      25     1     1     2     0     0 -8.556166321E+01  3.866437842E+01 -2.078295002E+01  1.577106952E+02  1.250000000E+02  0.00000E+00  9.000E+00
      21     1     1     2   511   501  1.263532175E+01 -3.188280242E+01 -7.963898207E+00  3.520778494E+01  4.214684851E-07  0.00000E+00  9.000E+00
#rwgt            2          11   1.7143720143908898E-003           8      279357           0
</event>
<event>
      5   9999  3.79277E-02  6.52749E+00 -1.00000E+00  2.19935E-01
      21    -1     0     0   502   501  0.000000000E+00  0.000000000E+00  1.872875836E+02  1.872875836E+02  0.000000000E+00  0.00000E+00  9.000E+00
      21    -1     0     0   512   502  0.000000000E+00  0.000000000E+00 -1.499691341E+02  1.499691341E+02  0.000000000E+00  0.00000E+00  9.000E+00
      25     1     1     2     0     0  4.116041028E+01 -4.758837010E+01 -5.938323507E+01  1.520203965E+02  1.250000000E+02  0.00000E+00  9.000E+00
      25     1     1     2     0     0 -4.150597374E+01  5.410670546E+01  1.033304864E+02  1.759331431E+02  1.250000000E+02  0.00000E+00  9.000E+00
      21     1     1     2   512   501  3.455634673E-01 -6.518335362E+00 -6.628801742E+00  9.303178088E+00  1.460009660E-07  0.00000E+00  9.000E+00
#rwgt            1           1   2.1562340492177194E-002           8      279377           0
</event>
<event>
      5   9999  3.79277E-02  2.00783E+01 -1.00000E+00  1.66229E-01
      21    -1     0     0   502   501  0.000000000E+00  0.000000000E+00  4.615622321E+02  4.615622321E+02  0.000000000E+00  0.00000E+00  9.000E+00
       2    -1     0     0   501     0  0.000000000E+00  0.000000000E+00 -6.276555134E+02  6.276555134E+02  0.000000000E+00  0.00000E+00  9.000E+00
      25     1     1     2     0     0  1.692369563E+02 -1.396671217E+02  1.219188224E+01  2.528274001E+02  1.250000000E+02  0.00000E+00  9.000E+00
      25     1     1     2     0     0 -1.838931579E+02  1.533905598E+02  2.733522060E+02  3.843068902E+02  1.250000000E+02  0.00000E+00  9.000E+00
       2     1     1     2   502     0  1.465620163E+01 -1.372343807E+01 -4.516373694E+02  4.520834552E+02  5.394796609E-06  0.00000E+00  9.000E+00
#rwgt            1           1   2.3582731493440916E-002           8      279691           0
</event>
<event>
      5   9999  3.79277E-02  1.91701E+01 -1.00000E+00  1.67902E-01
      21    -1     0     0   502   501  0.000000000E+00  0.000000000E+00  1.542888684E+02  1.542888684E+02  0.000000000E+00  0.00000E+00  9.000E+00
      21    -1     0     0   511   502  0.000000000E+00  0.000000000E+00 -7.772472007E+02  7.772472007E+02  0.000000000E+00  0.00000E+00  9.000E+00
      25     1     1     2     0     0  2.796662344E+02  1.288682771E+01 -3.994436994E+02  5.035469610E+02  1.250000000E+02  0.00000E+00  9.000E+00
      25     1     1     2     0     0 -2.620195307E+02 -2.037601273E+01 -1.072526924E+02  3.101573091E+02  1.250000000E+02  0.00000E+00  9.000E+00
      21     1     1     2   511   501 -1.764670364E+01  7.489185014E+00 -1.162619404E+02  1.178317989E+02  1.348699152E-06  0.00000E+00  9.000E+00
#rwgt            1           1   2.6322149208435817E-002           8      279864           0
</event>
<event>
      5   9999  3.79277E-02  5.03019E+01 -1.00000E+00  1.38927E-01
      21    -1     0     0   502   501  0.000000000E+00  0.000000000E+00  1.461531834E+02  1.461531834E+02  0.000000000E+00  0.00000E+00  9.000E+00
      21    -1     0     0   501   512  0.000000000E+00  0.000000000E+00 -2.288899986E+03  2.288899986E+03  0.000000000E+00  0.00000E+00  9.000E+00
      25     1     1     2     0     0  1.145997138E+02 -4.593244986E+02 -5.489291583E+02  7.355680188E+02  1.250000000E+02  0.00000E+00  9.000E+00
      25     1     1     2     0     0 -6.975022648E+01  4.365472716E+02 -9.662819796E+02  1.069936670E+03  1.250000000E+02  0.00000E+00  9.000E+00
      21     1     1     2   502   512 -4.484948730E+01  2.277722704E+01 -6.275356645E+02  6.295484801E+02  1.321449896E-05  0.00000E+00  9.000E+00
#rwgt            1           1   9.4268817420636447E-002           8      280180           0
</event>
<event>
      5   9999  3.79277E-02  2.92445E+01 -1.00000E+00  1.53813E-01
      21    -1     0     0   502   501  0.000000000E+00  0.000000000E+00  3.736333826E+02  3.736333826E+02  0.000000000E+00  0.00000E+00  9.000E+00
       2    -1     0     0   501     0  0.000000000E+00  0.000000000E+00 -6.808913316E+02  6.808913316E+02  0.000000000E+00  0.00000E+00  9.000E+00
      25     1     1     2     0     0  2.927534286E+02 -3.256286057E+02 -1.194285763E+02  4.707724967E+02  1.250000000E+02  0.00000E+00  9.000E+00
      25     1     1     2     0     0 -2.702179595E+02  3.442671636E+02 -6.775358190E+01  4.601664628E+02  1.250000000E+02  0.00000E+00  9.000E+00
       2     1     1     2   502     0 -2.253546909E+01 -1.863855798E+01 -1.200757909E+02  1.235857547E+02  1.907348633E-06  0.00000E+00  9.000E+00
#rwgt            1           1  0.13039423104708420                8      280348           0
</event>
<event>
      5   9999  3.79277E-02  5.45609E+00 -1.00000E+00  2.32078E-01
      21    -1     0     0   502   511  0.000000000E+00  0.000000000E+00  1.268481448E+02  1.268481448E+02  0.000000000E+00  0.00000E+00  9.000E+00
      21    -1     0     0   501   502  0.000000000E+00  0.000000000E+00 -1.646134251E+03  1.646134251E+03  0.000000000E+00  0.00000E+00  9.000E+00
      25     1     1     2     0     0 -1.690771607E+02 -8.995605500E+01 -1.183418791E+03  1.205314985E+03  1.250000000E+02  0.00000E+00  9.000E+00
      25     1     1     2     0     0  1.646975647E+02  9.320998197E+01 -4.232117891E+02  4.801526913E+02  1.250000000E+02  0.00000E+00  9.000E+00
      21     1     1     2   501   511  4.379596023E+00 -3.253926966E+00  8.734447424E+01  8.751471923E+01  1.348699152E-06  0.00000E+00  9.000E+00
#rwgt            1           1   3.1278605683122587E-002           8      280633           0
</event>
<event>
      5   9999  3.79277E-02  3.42077E+01 -1.00000E+00  1.49183E-01
      21    -1     0     0   502   501  0.000000000E+00  0.000000000E+00  6.170232724E+02  6.170232724E+02  0.000000000E+00  0.00000E+00  9.000E+00
      21    -1     0     0   501   512  0.000000000E+00  0.000000000E+00 -8.304048729E+01  8.304048729E+01  0.000000000E+00  0.00000E+00  9.000E+00
      25     1     1     2     0     0  1.362034876E+02  9.859195977E+01  2.815043150E+02  3.509151520E+02  1.250000000E+02  0.00000E+00  9.000E+00
      25     1     1     2     0     0 -1.498952582E+02 -6.724392064E+01  2.242200077E+02  3.047785182E+02  1.250000000E+02  0.00000E+00  9.000E+00
      21     1     1     2   502   512  1.369177065E+01 -3.134803914E+01  2.825846235E+01  4.437008943E+01  8.259061849E-07  0.00000E+00  9.000E+00
#rwgt            1           1   4.1220967403609081E-002           8      281192           0
</event>
<event>
      5   9999  3.79277E-02  6.95888E+01 -1.00000E+00  1.31350E-01
      21    -1     0     0   502   501  0.000000000E+00  0.000000000E+00  2.139291181E+02  2.139291181E+02  0.000000000E+00  0.00000E+00  9.000E+00
      21    -1     0     0   501   511  0.000000000E+00  0.000000000E+00 -4.117655360E+02  4.117655360E+02  0.000000000E+00  0.00000E+00  9.000E+00
      25     1     1     2     0     0  7.506296613E+01 -1.486387999E+02 -6.574312071E+01  2.183462838E+02  1.250000000E+02  0.00000E+00  9.000E+00
      25     1     1     2     0     0 -1.415711654E+02  1.281628790E+02  3.071011700E+01  2.302959612E+02  1.250000000E+02  0.00000E+00  9.000E+00
      21     1     1     2   502   511  6.650819928E+01  2.047592090E+01 -1.628034142E+02  1.770524091E+02  0.000000000E+00  0.00000E+00  9.000E+00
#rwgt            1           1   4.2026401466929368E-002           8      281339           0
</event>
<event>
      5   9999  3.79277E-02  9.02669E+01 -1.00000E+00  1.25862E-01
      21    -1     0     0   502   501  0.000000000E+00  0.000000000E+00  7.621528027E+01  7.621528027E+01  0.000000000E+00  0.00000E+00  9.000E+00
      21    -1     0     0   512   502  0.000000000E+00  0.000000000E+00 -1.227274499E+03  1.227274499E+03  0.000000000E+00  0.00000E+00  9.000E+00
      25     1     1     2     0     0  3.205241825E+01  8.365757200E+01 -6.239762964E+02  6.426487107E+02  1.250000000E+02  0.00000E+00  9.000E+00
      25     1     1     2     0     0  5.527939185E+01 -1.064887144E+02 -5.734363927E+01  1.825073983E+02  1.250000000E+02  0.00000E+00  9.000E+00
      21     1     1     2   512   501 -8.733181010E+01  2.283114240E+01 -4.697392834E+02  4.783336707E+02  5.394796609E-06  0.00000E+00  9.000E+00
#rwgt            1           1   4.5750045152184934E-002           8      281420           0
</event>
<event>
      5   9999 -3.79277E-02  2.32749E+01 -1.00000E+00  1.61112E-01
      21    -1     0     0   502   511  0.000000000E+00  0.000000000E+00  9.866022486E+02  9.866022486E+02  0.000000000E+00  0.00000E+00  9.000E+00
      21    -1     0     0   501   502  0.000000000E+00  0.000000000E+00 -5.366453129E+01  5.366453129E+01  0.000000000E+00  0.00000E+00  9.000E+00
      25     1     1     2     0     0 -1.897210614E+01  1.435335919E+02  5.114996370E+02  5.460940500E+02  1.250000000E+02  0.00000E+00  9.000E+00
      25     1     1     2     0     0  3.253291490E+01 -1.624498879E+02  2.679278883E+02  3.389081143E+02  1.250000000E+02  0.00000E+00  9.000E+00
      21     1     1     2   501   511 -1.356080876E+01  1.891629599E+01  1.535101920E+02  1.552646155E+02  1.907348633E-06  0.00000E+00  9.000E+00
#rwgt            1           1  -9.2284092098561060E-002           8      281498           0
</event>
<event>
      5   9999  3.79277E-02  4.19719E+01 -1.00000E+00  1.43556E-01
       2    -1     0     0   502     0  0.000000000E+00  0.000000000E+00  3.902480010E+02  3.902480010E+02  0.000000000E+00  0.00000E+00  9.000E+00
      21    -1     0     0   501   502  0.000000000E+00  0.000000000E+00 -3.894692366E+02  3.894692366E+02  0.000000000E+00  0.00000E+00  9.000E+00
      25     1     1     2     0     0  1.340792510E+02  1.423701755E+02 -1.059500240E+02  2.551409806E+02  1.250000000E+02  0.00000E+00  9.000E+00
      25     1     1     2     0     0 -9.384553695E+01 -1.543236929E+02 -1.490026510E+02  2.654233920E+02  1.250000000E+02  0.00000E+00  9.000E+00
       2     1     1     2   501     0 -4.023371404E+01  1.195351741E+01  2.557314394E+02  2.591528650E+02  4.672030912E-06  0.00000E+00  9.000E+00
#rwgt            1           1   3.1591159075302896E-002           8      281701           0
</event>
<event>
      5   9999  3.79277E-02  4.83309E+01 -1.00000E+00  1.39922E-01
      21    -1     0     0   511   501  0.000000000E+00  0.000000000E+00  2.364348556E+02  2.364348556E+02  0.000000000E+00  0.00000E+00  9.000E+00
      21    -1     0     0   501   502  0.000000000E+00  0.000000000E+00 -1.027176787E+03  1.027176787E+03  0.000000000E+00  0.00000E+00  9.000E+00
      25     1     1     2     0     0 -3.530494122E+02 -1.322889001E+01 -7.281590615E+02  8.189380378E+02  1.250000000E+02  0.00000E+00  9.000E+00
      25     1     1     2     0     0  3.656615425E+02 -3.342745260E+01 -7.432514501E+01  3.949366853E+02  1.250000000E+02  0.00000E+00  9.000E+00
      21     1     1     2   511   502 -1.261213029E+01  4.665634261E+01  1.174227510E+01  4.973691949E+01  1.261592536E-06  0.00000E+00  9.000E+00
#rwgt            1           1   9.7303128881922898E-002           8      281816           0
</event>
<event>
      5   9999  3.79277E-02  5.26239E+01 -1.00000E+00  1.37820E-01
      21    -1     0     0   502   512  0.000000000E+00  0.000000000E+00  8.854052194E+02  8.854052194E+02  0.000000000E+00  0.00000E+00  9.000E+00
      21    -1     0     0   501   502  0.000000000E+00  0.000000000E+00 -5.813287348E+01  5.813287348E+01  0.000000000E+00  0.00000E+00  9.000E+00
      25     1     1     2     0     0  7.181895405E+01  9.474156936E+01  3.659221651E+02  4.045466080E+02  1.250000000E+02  0.00000E+00  9.000E+00
      25     1     1     2     0     0 -8.596451100E+01 -1.454286198E+02  2.795743697E+02  3.497516387E+02  1.250000000E+02  0.00000E+00  9.000E+00
      21     1     1     2   501   512  1.414555695E+01  5.068705041E+01  1.817758112E+02  1.892398462E+02  0.000000000E+00  0.00000E+00  9.000E+00
#rwgt            1           1   3.4698493508167318E-002           8      281970           0
</event>
<event>
      5   9999  3.79277E-02  5.21105E+01 -1.00000E+00  1.38059E-01
      21    -1     0     0   502   501  0.000000000E+00  0.000000000E+00  1.384426158E+03  1.384426158E+03  0.000000000E+00  0.00000E+00  9.000E+00
      -2    -1     0     0     0   502  0.000000000E+00  0.000000000E+00 -3.624068314E+02  3.624068314E+02  0.000000000E+00  0.00000E+00  9.000E+00
      25     1     1     2     0     0 -1.619085109E+01 -3.414247119E+02  9.578869042E+02  1.024697662E+03  1.250000000E+02  0.00000E+00  9.000E+00
      25     1     1     2     0     0  2.612210875E+01  2.902693387E+02  3.261984654E+02  4.549385589E+02  1.250000000E+02  0.00000E+00  9.000E+00
      -2     1     1     2     0   501 -9.931257657E+00  5.115537318E+01 -2.620660430E+02  2.671967683E+02  0.000000000E+00  0.00000E+00  9.000E+00
#rwgt            1           1   3.8229504975539397E-002           8      282108           0
</event>
<event>
      5   9999  3.79277E-02  9.42773E+01 -1.00000E+00  1.24990E-01
      21    -1     0     0   502   511  0.000000000E+00  0.000000000E+00  3.625948363E+02  3.625948363E+02  0.000000000E+00  0.00000E+00  9.000E+00
      21    -1     0     0   501   502  0.000000000E+00  0.000000000E+00 -1.246426523E+03  1.246426523E+03  0.000000000E+00  0.00000E+00  9.000E+00
      25     1     1     2     0     0 -5.549383863E+01 -1.034322533E+02 -9.941894297E+02  1.008868385E+03  1.250000000E+02  0.00000E+00  9.000E+00
      25     1     1     2     0     0  1.304215403E+02  4.621301090E+01 -2.013908922E+02  2.744607659E+02  1.250000000E+02  0.00000E+00  9.000E+00
      21     1     1     2   501   511 -7.492770168E+01  5.721924239E+01  3.117486357E+02  3.256922075E+02  5.394796609E-06  0.00000E+00  9.000E+00
#rwgt            1           1   3.4812646530131143E-002           8      282257           0
</event>
<event>
      5   9999  3.79277E-02  1.78774E+01 -1.00000E+00  1.70492E-01
      21    -1     0     0   502   501  0.000000000E+00  0.000000000E+00  1.383174189E+02  1.383174189E+02  0.000000000E+00  0.00000E+00  9.000E+00
      21    -1     0     0   512   502  0.000000000E+00  0.000000000E+00 -2.876241550E+02  2.876241550E+02  0.000000000E+00  0.00000E+00  9.000E+00
      25     1     1     2     0     0  1.107445247E+01 -4.797078809E+01 -1.818794901E+02  2.261172017E+02  1.250000000E+02  0.00000E+00  9.000E+00
      25     1     1     2     0     0  5.521366469E+00  4.132388386E+01  7.652280873E+01  1.523774561E+02  1.250000000E+02  0.00000E+00  9.000E+00
      21     1     1     2   512   501 -1.659581894E+01  6.646904231E+00 -4.395005474E+01  4.744691617E+01  9.536743164E-07  0.00000E+00  9.000E+00
#rwgt            1           1   4.8001086869355954E-002           8      282304           0
</event>
<event>
      5   9999  3.79277E-02  6.95346E+01 -1.00000E+00  1.31368E-01
      21    -1     0     0   502   501  0.000000000E+00  0.000000000E+00  4.105585798E+02  4.105585798E+02  0.000000000E+00  0.00000E+00  9.000E+00
      21    -1     0     0   511   502  0.000000000E+00  0.000000000E+00 -1.387138103E+02  1.387138103E+02  0.000000000E+00  0.00000E+00  9.000E+00
      25     1     1     2     0     0 -1.212365440E+02 -1.296508611E+02  2.195076232E+02  3.087332862E+02  1.250000000E+02  0.00000E+00  9.000E+00
      25     1     1     2     0     0  7.588842508E+01  7.693838090E+01  3.621474984E+01  1.691599114E+02  1.250000000E+02  0.00000E+00  9.000E+00
      21     1     1     2   511   501  4.534811891E+01  5.271248019E+01  1.612239646E+01  7.137919251E+01  3.371747881E-07  0.00000E+00  9.000E+00
#rwgt            1           1   2.5438393104900779E-002           8      282531           0
</event>
<event>
      5   9999  3.79277E-02  4.07499E+01 -1.00000E+00  1.44342E-01
      21    -1     0     0   502   501  0.000000000E+00  0.000000000E+00  2.474205215E+02  2.474205215E+02  0.000000000E+00  0.00000E+00  9.000E+00
      21    -1     0     0   512   502  0.000000000E+00  0.000000000E+00 -2.882260675E+02  2.882260675E+02  0.000000000E+00  0.00000E+00  9.000E+00
      25     1     1     2     0     0  7.923631947E+01  8.635907609E+01 -5.991815351E+01  1.815253962E+02  1.250000000E+02  0.00000E+00  9.000E+00
      25     1     1     2     0     0 -5.555059785E+01 -1.195184532E+02  1.382077017E+02  2.282474499E+02  1.250000000E+02  0.00000E+00  9.000E+00
      21     1     1     2   512   501 -2.368572162E+01  3.315937710E+01 -1.190950942E+02  1.258737429E+02  1.907348633E-06  0.00000E+00  9.000E+00
#rwgt            1           1   2.4219254157979233E-002           8      282699           0
</event>
<event>
      5   9999  3.79277E-02  9.45190E+01 -1.00000E+00  1.24939E-01
      21    -1     0     0   502   501  0.000000000E+00  0.000000000E+00  1.245826059E+03  1.245826059E+03  0.000000000E+00  0.00000E+00  9.000E+00
      21    -1     0     0   501   511  0.000000000E+00  0.000000000E+00 -2.056894216E+02  2.056894216E+02  0.000000000E+00  0.00000E+00  9.000E+00
      25     1     1     2     0     0 -3.540117710E+02  2.922569609E+02  5.139480891E+02  7.003614092E+02  1.250000000E+02  0.00000E+00  9.000E+00
      25     1     1     2     0     0  3.638352564E+02 -1.982498457E+02  4.788383497E+02  6.454380375E+02  1.250000000E+02  0.00000E+00  9.000E+00
      21     1     1     2   502   511 -9.823485315E+00 -9.400711511E+01  4.735019887E+01  1.057160342E+02  0.000000000E+00  0.00000E+00  9.000E+00
#rwgt            1           1   7.4693628603375750E-002           8      282812           0
</event>
<event>
      5   9999  3.79277E-02  8.08262E+01 -1.00000E+00  1.28134E-01
      21    -1     0     0   502   512  0.000000000E+00  0.000000000E+00  6.571934309E+02  6.571934309E+02  0.000000000E+00  0.00000E+00  9.000E+00
      21    -1     0     0   501   502  0.000000000E+00  0.000000000E+00 -2.979228652E+02  2.979228652E+02  0.000000000E+00  0.00000E+00  9.000E+00
      25     1     1     2     0     0 -2.841436153E+02 -1.291795157E+02  9.798164189E+01  3.502147106E+02  1.250000000E+02  0.00000E+00  9.000E+00
      25     1     1     2     0     0  2.955895388E+02  4.916782452E+01 -6.947650296E+00  3.247520904E+02  1.250000000E+02  0.00000E+00  9.000E+00
      21     1     1     2   501   512 -1.144592344E+01  8.001169114E+01  2.682365741E+02  2.801494951E+02  0.000000000E+00  0.00000E+00  9.000E+00
#rwgt            1           1   4.1092678043701918E-002           8      282909           0
</event>
<event>
      5   9999  3.79277E-02  9.10608E+01 -1.00000E+00  1.25685E-01
       2    -1     0     0   502     0  0.000000000E+00  0.000000000E+00  4.203202424E+02  4.203202424E+02  0.000000000E+00  0.00000E+00  9.000E+00
      21    -1     0     0   501   502  0.000000000E+00  0.000000000E+00 -3.578081062E+02  3.578081062E+02  0.000000000E+00  0.00000E+00  9.000E+00
      25     1     1     2     0     0  1.017816578E+02 -2.020656496E+02 -4.364030021E+01  2.621440605E+02  1.250000000E+02  0.00000E+00  9.000E+00
      25     1     1     2     0     0 -1.514719429E+02  1.257573854E+02 -1.270978691E+02  2.655890393E+02  1.250000000E+02  0.00000E+00  9.000E+00
       2     1     1     2   501     0  4.969028510E+01  7.630826427E+01  2.332503055E+02  2.503952488E+02  0.000000000E+00  0.00000E+00  9.000E+00
#rwgt            1           1   3.3898954469387295E-002           8      282990           0
</event>
<event>
      5   9999  3.79277E-02  1.44017E+02 -1.00000E+00  1.17099E-01
      21    -1     0     0   502   501  0.000000000E+00  0.000000000E+00  4.984402436E+02  4.984402436E+02  0.000000000E+00  0.00000E+00  9.000E+00
      21    -1     0     0   501   511  0.000000000E+00  0.000000000E+00 -4.203361956E+02  4.203361956E+02  0.000000000E+00  0.00000E+00  9.000E+00
      25     1     1     2     0     0 -1.017898681E+02 -1.560938840E+02  1.338624501E+02  2.612864969E+02  1.250000000E+02  0.00000E+00  9.000E+00
      25     1     1     2     0     0 -1.292726176E+01  2.431619629E+02  2.168324455E+02  3.491935906E+02  1.250000000E+02  0.00000E+00  9.000E+00
      21     1     1     2   502   511  1.147171299E+02 -8.706807887E+01 -2.725908476E+02  3.082963517E+02  5.394796609E-06  0.00000E+00  9.000E+00
#rwgt            1           1   3.0061874545509827E-002           8      283142           0
</event>
<event>
      5   9999  3.79277E-02  1.30245E+01 -1.00000E+00  1.83363E-01
      21    -1     0     0   502   512  0.000000000E+00  0.000000000E+00  6.828446759E+01  6.828446759E+01  0.000000000E+00  0.00000E+00  9.000E+00
      21    -1     0     0   501   502  0.000000000E+00  0.000000000E+00 -8.640331627E+02  8.640331627E+02  0.000000000E+00  0.00000E+00  9.000E+00
      25     1     1     2     0     0 -1.114597816E+02  1.225509307E+02 -5.980569055E+02  6.330395530E+02  1.250000000E+02  0.00000E+00  9.000E+00
      25     1     1     2     0     0  1.040038469E+02 -1.332301370E+02 -1.769140458E+02  2.747556172E+02  1.250000000E+02  0.00000E+00  9.000E+00
      21     1     1     2   501   512  7.455934687E+00  1.067920632E+01 -2.077774377E+01  2.452246003E+01  2.384185791E-07  0.00000E+00  9.000E+00
#rwgt            1           1   4.3415059095749435E-002           8      283253           0
</event>
<event>
      5   9999  3.79277E-02  4.61381E+01 -1.00000E+00  1.41097E-01
      21    -1     0     0   502   511  0.000000000E+00  0.000000000E+00  1.557870453E+02  1.557870453E+02  0.000000000E+00  0.00000E+00  9.000E+00
      21    -1     0     0   501   502  0.000000000E+00  0.000000000E+00 -3.807366914E+02  3.807366914E+02  0.000000000E+00  0.00000E+00  9.000E+00
      25     1     1     2     0     0  5.085697470E+00  1.339454222E+02 -1.964510514E+02  2.686731398E+02  1.250000000E+02  0.00000E+00  9.000E+00
      25     1     1     2     0     0 -1.473178365E+01 -1.790638936E+02 -3.357384331E+01  2.214342033E+02  1.250000000E+02  0.00000E+00  9.000E+00
      21     1     1     2   501   511  9.646086184E+00  4.511847138E+01  5.075248645E+00  4.641639352E+01  9.830249847E-07  0.00000E+00  9.000E+00
#rwgt            1           1   4.0293271913131021E-002           8      283501           0
</event>
<event>
      5   9999  3.79277E-02  5.54400E+01 -1.00000E+00  1.36564E-01
      21    -1     0     0   502   501  0.000000000E+00  0.000000000E+00  8.253407802E+01  8.253407802E+01  0.000000000E+00  0.00000E+00  9.000E+00
      21    -1     0     0   512   502  0.000000000E+00  0.000000000E+00 -1.145481344E+03  1.145481344E+03  0.000000000E+00  0.00000E+00  9.000E+00
      25     1     1     2     0     0 -5.536024079E+01 -1.295789466E+02 -7.849819899E+01  2.040647616E+02  1.250000000E+02  0.00000E+00  9.000E+00
      25     1     1     2     0     0  7.802527691E+00  1.010858452E+02 -3.299937542E+02  3.671513385E+02  1.250000000E+02  0.00000E+00  9.000E+00
      21     1     1     2   512   501  4.755771310E+01  2.849310139E+01 -6.544553131E+02  6.567993223E+02  0.000000000E+00  0.00000E+00  9.000E+00
#rwgt            1           1   4.9432398613996474E-002           8      283607           0
</event>
<event>
      5   9999  3.79277E-02  9.25380E+01 -1.00000E+00  1.25362E-01
      21    -1     0     0   502   501  0.000000000E+00  0.000000000E+00  7.897760838E+01  7.897760838E+01  0.000000000E+00  0.00000E+00  9.000E+00
       2    -1     0     0   501     0  0.000000000E+00  0.000000000E+00 -8.231180489E+02  8.231180489E+02  0.000000000E+00  0.00000E+00  9.000E+00
      25     1     1     2     0     0  7.612607720E+01 -7.123976371E+01 -5.875621717E+01  1.730536813E+02  1.250000000E+02  0.00000E+00  9.000E+00
      25     1     1     2     0     0  1.507218592E+01  5.555053190E+01 -2.650967453E+02  2.986876575E+02  1.250000000E+02  0.00000E+00  9.000E+00
       2     1     1     2   502     0 -9.119826312E+01  1.568923181E+01 -4.202874780E+02  4.303543184E+02  5.394796609E-06  0.00000E+00  9.000E+00
#rwgt            1           1   4.7160540154303682E-002           8      283759           0
</event>
<event>
      5   9999  3.79277E-02  1.77940E+01 -1.00000E+00  1.70669E-01
      21    -1     0     0   502   501  0.000000000E+00  0.000000000E+00  6.483087227E+02  6.483087227E+02  0.000000000E+00  0.00000E+00  9.000E+00
      21    -1     0     0   511   502  0.000000000E+00  0.000000000E+00 -1.073946382E+02  1.073946382E+02  0.000000000E+00  0.00000E+00  9.000E+00
      25     1     1     2     0     0 -1.864068363E+02 -6.915506668E+01  1.384875537E+02  2.726421362E+02  1.250000000E+02  0.00000E+00  9.000E+00
      25     1     1     2     0     0  1.749549481E+02  8.277420002E+01  4.041200003E+02  4.651868191E+02  1.250000000E+02  0.00000E+00  9.000E+00
      21     1     1     2   511   501  1.145188820E+01 -1.361913334E+01 -1.693469421E+00  1.787440558E+01  2.987673529E-07  0.00000E+00  9.000E+00
#rwgt            1           1   3.3578765888539433E-002           8      283928           0
</event>
<event>
      5   9999  3.79277E-02  5.66569E+01 -1.00000E+00  1.36048E-01
      21    -1     0     0   502   512  0.000000000E+00  0.000000000E+00  6.726529795E+02  6.726529795E+02  0.000000000E+00  0.00000E+00  9.000E+00
      21    -1     0     0   501   502  0.000000000E+00  0.000000000E+00 -1.695880465E+02  1.695880465E+02  0.000000000E+00  0.00000E+00  9.000E+00
      25     1     1     2     0     0 -1.601233858E+02  6.234138312E+00  3.589939816E+01  2.063786083E+02  1.250000000E+02  0.00000E+00  9.000E+00
      25     1     1     2     0     0  1.057094957E+02 -2.201819750E+01 -9.487046653E-02  1.651796220E+02  1.250000000E+02  0.00000E+00  9.000E+00
      21     1     1     2   501   512  5.441389006E+01  1.578405918E+01  4.672604053E+02  4.706827958E+02  5.394796609E-06  0.00000E+00  9.000E+00
#rwgt            1           1   2.7985306513459401E-002           8      284084           0
</event>
<event>
      5   9999 -3.79277E-02  2.84415E+01 -1.00000E+00  1.54667E-01
      21    -1     0     0   511   501  0.000000000E+00  0.000000000E+00  2.577103762E+01  2.577103762E+01  0.000000000E+00  0.00000E+00  9.000E+00
      21    -1     0     0   501   502  0.000000000E+00  0.000000000E+00 -1.976210282E+03  1.976210282E+03  0.000000000E+00  0.00000E+00  9.000E+00
      25     1     1     2     0     0 -2.208588049E+01 -1.559918660E+02 -1.221898731E+03  1.238338709E+03  1.250000000E+02  0.00000E+00  9.000E+00
      25     1     1     2     0     0  4.912135543E+01  1.471600787E+02 -6.605727420E+02  6.899640164E+02  1.250000000E+02  0.00000E+00  9.000E+00
      21     1     1     2   511   502 -2.703547494E+01  8.831787313E+00 -6.796777126E+01  7.367859460E+01  2.132480600E-06  0.00000E+00  9.000E+00
#rwgt            1           1 -0.63482248802001251                8      284154           0
</event>
<event>
      5   9999  3.79277E-02  2.96947E+01 -1.00000E+00  1.53349E-01
      21    -1     0     0   502   501  0.000000000E+00  0.000000000E+00  5.525805514E+01  5.525805514E+01  0.000000000E+00  0.00000E+00  9.000E+00
      21    -1     0     0   512   502  0.000000000E+00  0.000000000E+00 -7.113462776E+02  7.113462776E+02  0.000000000E+00  0.00000E+00  9.000E+00
      25     1     1     2     0     0 -1.203054477E+02  2.364888136E+01 -1.801180114E+02  2.511974689E+02  1.250000000E+02  0.00000E+00  9.000E+00
      25     1     1     2     0     0  9.425203304E+01 -3.789646575E+01 -3.398939375E+02  3.761282715E+02  1.250000000E+02  0.00000E+00  9.000E+00
      21     1     1     2   512   501  2.605341467E+01  1.424758439E+01 -1.360762735E+02  1.392785923E+02  0.000000000E+00  0.00000E+00  9.000E+00
#rwgt            1           1   7.0179884101358239E-002           8      284242           0
</event>
<event>
      5   9999  3.79277E-02  1.91441E+01 -1.00000E+00  1.67952E-01
      21    -1     0     0   511   501  0.000000000E+00  0.000000000E+00  5.558790471E+01  5.558790471E+01  0.000000000E+00  0.00000E+00  9.000E+00
      21    -1     0     0   501   502  0.000000000E+00  0.000000000E+00 -8.488666270E+02  8.488666270E+02  0.000000000E+00  0.00000E+00  9.000E+00
      25     1     1     2     0     0  2.866365597E+01 -1.474539397E+02 -2.871652121E+02  3.473515921E+02  1.250000000E+02  0.00000E+00  9.000E+00
      25     1     1     2     0     0 -2.506261180E+01  1.662562845E+02 -4.865020639E+02  5.296966535E+02  1.250000000E+02  0.00000E+00  9.000E+00
      21     1     1     2   511   502 -3.601044164E+00 -1.880234474E+01 -1.961144638E+01  2.740628607E+01  2.384185791E-07  0.00000E+00  9.000E+00
#rwgt            1           1   7.5679323885235669E-002           8      284369           0
</event>
<event>
      5   9999  3.79277E-02  9.07441E+00 -1.00000E+00  2.00763E-01
      21    -1     0     0   502   512  0.000000000E+00  0.000000000E+00  4.163078972E+02  4.163078972E+02  0.000000000E+00  0.00000E+00  9.000E+00
      21    -1     0     0   501   502  0.000000000E+00  0.000000000E+00 -1.075251846E+02  1.075251846E+02  0.000000000E+00  0.00000E+00  9.000E+00
      25     1     1     2     0     0  1.059540050E+02 -7.624417322E+01  6.541607462E+01  1.922074086E+02  1.250000000E+02  0.00000E+00  9.000E+00
      25     1     1     2     0     0 -1.150282874E+02  7.629241028E+01  1.535728296E+02  2.413745073E+02  1.250000000E+02  0.00000E+00  9.000E+00
      21     1     1     2   501   512  9.074282455E+00 -4.823706148E-02  8.979380834E+01  9.025116589E+01  9.536743164E-07  0.00000E+00  9.000E+00
#rwgt            1           1   3.1152956713999268E-002           8      284484           0
</event>
<event>
      5   9999  3.79277E-02  2.27217E+01 -1.00000E+00  1.61923E-01
      21    -1     0     0   502   501  0.000000000E+00  0.000000000E+00  3.306291863E+02  3.306291863E+02  0.000000000E+00  0.00000E+00  9.000E+00
      21    -1     0     0   501   511  0.000000000E+00  0.000000000E+00 -3.741964929E+02  3.741964929E+02  0.000000000E+00  0.00000E+00  9.000E+00
      25     1     1     2     0     0  4.944255269E+01  5.342283263E+01 -9.244563616E+01  1.716675878E+02  1.250000000E+02  0.00000E+00  9.000E+00
      25     1     1     2     0     0 -5.966558723E+01 -7.371478162E+01  2.692426246E+02  3.116254839E+02  1.250000000E+02  0.00000E+00  9.000E+00
      21     1     1     2   502   511  1.022303454E+01  2.029194899E+01 -2.203642951E+02  2.215326075E+02  0.000000000E+00  0.00000E+00  9.000E+00
#rwgt            1           1   4.9300439582914808E-002           8      284760           0
</event>
<event>
      5   9999  3.79277E-02  1.34039E+02 -1.00000E+00  1.18364E-01
      21    -1     0     0   502   501  0.000000000E+00  0.000000000E+00  3.158566678E+02  3.158566678E+02  0.000000000E+00  0.00000E+00  9.000E+00
      21    -1     0     0   501   512  0.000000000E+00  0.000000000E+00 -2.250143309E+02  2.250143309E+02  0.000000000E+00  0.00000E+00  9.000E+00
      25     1     1     2     0     0 -3.905141528E+01  5.901718015E+01 -2.296454431E+01  1.454661847E+02  1.250000000E+02  0.00000E+00  9.000E+00
      25     1     1     2     0     0 -5.469111566E+01  3.678861293E+01  1.933914423E+02  2.395198742E+02  1.250000000E+02  0.00000E+00  9.000E+00
      21     1     1     2   502   512  9.374253095E+01 -9.580579308E+01 -7.958456111E+01  1.558849398E+02  3.015782986E-06  0.00000E+00  9.000E+00
#rwgt            1           1   5.7942244992119162E-002           8      284905           0
</event>
<event>
      5   9999  3.79277E-02  7.29557E+01 -1.00000E+00  1.30317E-01
      21    -1     0     0   511   501  0.000000000E+00  0.000000000E+00  4.764600849E+02  4.764600849E+02  0.000000000E+00  0.00000E+00  9.000E+00
      21    -1     0     0   501   502  0.000000000E+00  0.000000000E+00 -1.080109523E+03  1.080109523E+03  0.000000000E+00  0.00000E+00  9.000E+00
      25     1     1     2     0     0 -1.642059584E+02  1.124167820E+02 -8.160659579E+02  8.492289310E+02  1.250000000E+02  0.00000E+00  9.000E+00
      25     1     1     2     0     0  1.037865503E+02 -7.152629608E+01 -2.121092344E+02  2.765917323E+02  1.250000000E+02  0.00000E+00  9.000E+00
      21     1     1     2   511   502  6.041940810E+01 -4.089048594E+01  4.245257545E+02  4.307489442E+02  0.000000000E+00  0.00000E+00  9.000E+00
#rwgt            1           1   1.9585601420525955E-002           8      285016           0
</event>
<event>
      5   9999  3.79277E-02  6.54261E+01 -1.00000E+00  1.32724E-01
      21    -1     0     0   502   501  0.000000000E+00  0.000000000E+00  1.037948514E+02  1.037948514E+02  0.000000000E+00  0.00000E+00  9.000E+00
       1    -1     0     0   501     0  0.000000000E+00  0.000000000E+00 -5.517748916E+02  5.517748916E+02  0.000000000E+00  0.00000E+00  9.000E+00
      25     1     1     2     0     0 -9.673012927E+01  1.071172974E+01 -3.794638249E+02  4.112046370E+02  1.250000000E+02  0.00000E+00  9.000E+00
      25     1     1     2     0     0  3.141858599E+01 -1.458221469E+01  2.313493389E+01  1.317573288E+02  1.250000000E+02  0.00000E+00  9.000E+00
       1     1     1     2   502     0  6.531154328E+01  3.870484954E+00 -9.165114923E+01  1.126077772E+02  0.000000000E+00  0.00000E+00  9.000E+00
#rwgt            1           1   3.6710902899326207E-002           8      285094           0
</event>
<event>
      5   9999  3.79277E-02  5.02095E+01 -1.00000E+00  1.38972E-01
      21    -1     0     0   511   501  0.000000000E+00  0.000000000E+00  1.745592076E+02  1.745592076E+02  0.000000000E+00  0.00000E+00  9.000E+00
      21    -1     0     0   501   502  0.000000000E+00  0.000000000E+00 -8.427784135E+02  8.427784135E+02  0.000000000E+00  0.00000E+00  9.000E+00
      25     1     1     2     0     0 -3.637426491E+01 -1.674249984E+02 -5.533225270E+02  5.925749203E+02  1.250000000E+02  0.00000E+00  9.000E+00
      25     1     1     2     0     0 -1.153910059E+00  1.340688388E+02 -2.329809277E+02  2.964471246E+02  1.250000000E+02  0.00000E+00  9.000E+00
      21     1     1     2   511   502  3.752817497E+01  3.335615963E+01  1.180842488E+02  1.283155763E+02  3.814697266E-06  0.00000E+00  9.000E+00
#rwgt            1           1  0.17325426791125290                8      285174           0
</event>
<event>
      5   9999  3.79277E-02  9.19517E+01 -1.00000E+00  1.25489E-01
      21    -1     0     0   502   501  0.000000000E+00  0.000000000E+00  1.953898394E+02  1.953898394E+02  0.000000000E+00  0.00000E+00  9.000E+00
      21    -1     0     0   512   502  0.000000000E+00  0.000000000E+00 -4.209948011E+02  4.209948011E+02  0.000000000E+00  0.00000E+00  9.000E+00
      25     1     1     2     0     0 -1.002904182E+02 -1.125591492E+01  9.351211503E+01  1.858880826E+02  1.250000000E+02  0.00000E+00  9.000E+00
      25     1     1     2     0     0  1.324144705E+02 -7.490184367E+01 -2.227464989E+02  2.972959485E+02  1.250000000E+02  0.00000E+00  9.000E+00
      21     1     1     2   512   501 -3.212405234E+01  8.615775859E+01 -9.637057780E+01  1.332006095E+02  1.348699152E-06  0.00000E+00  9.000E+00
#rwgt            1           1   3.9486509390867938E-002           8      285303           0
</event>
<event>
      5   9999  3.79277E-02  9.65019E+01 -1.00000E+00  1.24527E-01
      21    -1     0     0   502   501  0.000000000E+00  0.000000000E+00  1.050574257E+02  1.050574257E+02  0.000000000E+00  0.00000E+00  9.000E+00
      21    -1     0     0   511   502  0.000000000E+00  0.000000000E+00 -5.464267048E+02  5.464267048E+02  0.000000000E+00  0.00000E+00  9.000E+00
      25     1     1     2     0     0 -1.141462713E+02 -1.190395364E+02 -1.718436338E+02  2.689888789E+02  1.250000000E+02  0.00000E+00  9.000E+00
      25     1     1     2     0     0  3.914470832E+01  5.831579040E+01 -6.722793390E+01  1.583591952E+02  1.250000000E+02  0.00000E+00  9.000E+00
      21     1     1     2   511   501  7.500156294E+01  6.072374605E+01 -2.022977114E+02  2.241360565E+02  2.697398305E-06  0.00000E+00  9.000E+00
#rwgt            1           1   3.2000712257799532E-002           8      285384           0
</event>
<event>
      5   9999  3.79277E-02  5.90520E+01 -1.00000E+00  1.35074E-01
      21    -1     0     0   512   501  0.000000000E+00  0.000000000E+00  8.639499243E+02  8.639499243E+02  0.000000000E+00  0.00000E+00  9.000E+00
      21    -1     0     0   501   502  0.000000000E+00  0.000000000E+00 -1.348479445E+02  1.348479445E+02  0.000000000E+00  0.00000E+00  9.000E+00
      25     1     1     2     0     0 -8.587032833E+01  1.744381789E+02  4.843975094E+02  5.367199816E+02  1.250000000E+02  0.00000E+00  9.000E+00
      25     1     1     2     0     0  1.101170223E+02 -1.205936206E+02 -4.770355571E+00  2.057093488E+02  1.250000000E+02  0.00000E+00  9.000E+00
      21     1     1     2   512   502 -2.424669393E+01 -5.384455832E+01  2.494748260E+02  2.563685383E+02  3.814697266E-06  0.00000E+00  9.000E+00
#rwgt            1           1   2.7008841168711079E-002           8      285582           0
</event>
<event>
      5   9999  3.79277E-02  1.80825E+01 -1.00000E+00  1.70063E-01
      21    -1     0     0   511   501  0.000000000E+00  0.000000000E+00  5.316389614E+02  5.316389614E+02  0.000000000E+00  0.00000E+00  9.000E+00
      21    -1     0     0   501   502  0.000000000E+00  0.000000000E+00 -1.272138405E+02  1.272138405E+02  0.000000000E+00  0.00000E+00  9.000E+00
      25     1     1     2     0     0  4.443857444E+01 -9.201748111E-01 -7.360306745E+01  1.517169903E+02  1.250000000E+02  0.00000E+00  9.000E+00
      25     1     1     2     0     0 -3.614505456E+01 -1.514827933E+01  2.897041514E+02  3.179456410E+02  1.250000000E+02  0.00000E+00  9.000E+00
      21     1     1     2   511   502 -8.293519884E+00  1.606845414E+01  1.883240370E+02  1.891901705E+02  3.814697266E-06  0.00000E+00  9.000E+00
#rwgt            1           1   5.2340647978369827E-002           8      285707           0
</event>
<event>
      5   9999  3.79277E-02  1.14342E+02 -1.00000E+00  1.21265E-01
      21    -1     0     0   502   501  0.000000000E+00  0.000000000E+00  5.491856624E+02  5.491856624E+02  0.000000000E+00  0.00000E+00  9.000E+00
      21    -1     0     0   501   512  0.000000000E+00  0.000000000E+00 -2.466161733E+02  2.466161733E+02  0.000000000E+00  0.00000E+00  9.000E+00
      25     1     1     2     0     0  7.836705605E+01  1.801749548E+01  2.087362755E+02  2.562456991E+02  1.250000000E+02  0.00000E+00  9.000E+00
      25     1     1     2     0     0 -1.925180654E+02 -1.141271917E+01  2.541427001E+02  3.426470016E+02  1.250000000E+02  0.00000E+00  9.000E+00
      21     1     1     2   502   512  1.141510094E+02 -6.604776314E+00 -1.603094865E+02  1.969091351E+02  2.697398305E-06  0.00000E+00  9.000E+00
#rwgt            1           1  0.11245558006101899                8      285946           0
</event>
<event>
      5   9999  3.79277E-02  9.66571E+01 -1.00000E+00  1.24496E-01
      21    -1     0     0   502   501  0.000000000E+00  0.000000000E+00  3.457926495E+02  3.457926495E+02  0.000000000E+00  0.00000E+00  9.000E+00
      21    -1     0     0   501   511  0.000000000E+00  0.000000000E+00 -6.370936044E+02  6.370936044E+02  0.000000000E+00  0.00000E+00  9.000E+00
      25     1     1     2     0     0 -8.440284521E+01  2.039050055E+02  8.855792858E+01  2.686421379E+02  1.250000000E+02  0.00000E+00  9.000E+00
      25     1     1     2     0     0 -1.117931579E+01 -1.895300499E+02  8.255159940E+01  2.418395822E+02  1.250000000E+02  0.00000E+00  9.000E+00
      21     1     1     2   502   511  9.558216101E+01 -1.437495554E+01 -4.624104829E+02  4.724045338E+02  5.394796609E-06  0.00000E+00  9.000E+00
#rwgt            1           1   3.1074846207265711E-002           8      286010           0
</event>
<event>
      5   9999  3.79277E-02  1.70224E+01 -1.00000E+00  1.72361E-01
      21    -1     0     0   502   501  0.000000000E+00  0.000000000E+00  1.644240202E+01  1.644240202E+01  0.000000000E+00  0.00000E+00  9.000E+00
       2    -1     0     0   501     0  0.000000000E+00  0.000000000E+00 -3.290584566E+03  3.290584566E+03  0.000000000E+00  0.00000E+00  9.000E+00
      25     1     1     2     0     0 -1.102731746E+00  1.135807863E+02 -1.538468553E+03  1.547711956E+03  1.250000000E+02  0.00000E+00  9.000E+00
      25     1     1     2     0     0  1.810119707E+01 -1.126793357E+02 -5.974360985E+02  6.209502217E+02  1.250000000E+02  0.00000E+00  9.000E+00
       2     1     1     2   502     0 -1.699846532E+01 -9.014506837E-01 -1.138237512E+03  1.138364790E+03  2.157918644E-05  0.00000E+00  9.000E+00
#rwgt            1           1   8.7102950938647672E-002           8      286097           0
</event>
<event>
      5   9999  3.79277E-02  3.19687E+01 -1.00000E+00  1.51147E-01
      21    -1     0     0   502   501  0.000000000E+00  0.000000000E+00  4.968890819E+02  4.968890819E+02  0.000000000E+00  0.00000E+00  9.000E+00
      21    -1     0     0   511   502  0.000000000E+00  0.000000000E+00 -4.994961363E+02  4.994961363E+02  0.000000000E+00  0.00000E+00  9.000E+00
      25     1     1     2     0     0  3.867937161E+02  2.251059682E+02  7.732211954E+01  4.710475411E+02  1.250000000E+02  0.00000E+00  9.000E+00
      25     1     1     2     0     0 -3.940198472E+02 -2.562472894E+02 -6.739859560E+01  4.910009002E+02  1.250000000E+02  0.00000E+00  9.000E+00
      21     1     1     2   511   501  7.226131114E+00  3.114132119E+01 -1.253057838E+01  3.433677694E+01  1.685873940E-07  0.00000E+00  9.000E+00
#rwgt            1           1  0.10609495567383265                8      286334           0
</event>
<event>
      5   9999  3.79277E-02  1.36625E+02 -1.00000E+00  1.18024E-01
      21    -1     0     0   502   501  0.000000000E+00  0.000000000E+00  1.201395349E+03  1.201395349E+03  0.000000000E+00  0.00000E+00  9.000E+00
      21    -1     0     0   501   512  0.000000000E+00  0.000000000E+00 -1.316315364E+02  1.316315364E+02  0.000000000E+00  0.00000E+00  9.000E+00
      25     1     1     2     0     0  1.221660240E+02 -1.537429379E+02  9.613719133E+02  9.891523563E+02  1.250000000E+02  0.00000E+00  9.000E+00
      25     1     1     2     0     0 -4.027724869E+01  4.437862361E+01  1.468455545E+02  2.019414169E+02  1.250000000E+02  0.00000E+00  9.000E+00
      21     1     1     2   502   512 -8.188877527E+01  1.093643143E+02 -3.845365514E+01  1.419331122E+02  1.907348633E-06  0.00000E+00  9.000E+00
#rwgt            2          11   3.1196676256851487E-003           8      286697           0
</event>
<event>
      5   9999  3.79277E-02  4.05219E+01 -1.00000E+00  1.44492E-01
      21    -1     0     0   502   511  0.000000000E+00  0.000000000E+00  1.827249541E+02  1.827249541E+02  0.000000000E+00  0.00000E+00  9.000E+00
      21    -1     0     0   501   502  0.000000000E+00  0.000000000E+00 -5.582634743E+02  5.582634743E+02  0.000000000E+00  0.00000E+00  9.000E+00
      25     1     1     2     0     0  2.703450563E+01 -2.619485615E+02 -2.686143368E+02  3.963919465E+02  1.250000000E+02  0.00000E+00  9.000E+00
      25     1     1     2     0     0  6.554538876E+00  2.392813318E+02 -1.280872656E+02  2.988810220E+02  1.250000000E+02  0.00000E+00  9.000E+00
      21     1     1     2   501   511 -3.358904450E+01  2.266722972E+01  2.116308216E+01  4.571545975E+01  5.840038640E-07  0.00000E+00  9.000E+00
#rwgt            1           1   3.5178731228754673E-002           8      286777           0
</event>
<event>
      5   9999  3.79277E-02  8.53475E+00 -1.00000E+00  2.04063E-01
      21    -1     0     0   502   512  0.000000000E+00  0.000000000E+00  2.642322145E+02  2.642322145E+02  0.000000000E+00  0.00000E+00  9.000E+00
      21    -1     0     0   501   502  0.000000000E+00  0.000000000E+00 -5.441490979E+02  5.441490979E+02  0.000000000E+00  0.00000E+00  9.000E+00
      25     1     1     2     0     0 -6.805779232E+00 -1.914965436E+02 -4.016914433E+02  4.622750918E+02  1.250000000E+02  0.00000E+00  9.000E+00
      25     1     1     2     0     0 -1.342632095E+00  1.940353196E+02  6.905280330E+00  2.309203127E+02  1.250000000E+02  0.00000E+00  9.000E+00
      21     1     1     2   501   512  8.148411327E+00 -2.538775947E+00  1.148692796E+02  1.151859079E+02  3.015782986E-06  0.00000E+00  9.000E+00
#rwgt            1           1  0.14328204936343814                8      286963           0
</event>
<event>
      5   9999  3.79277E-02  5.97400E+01 -1.00000E+00  1.34804E-01
      21    -1     0     0   502   501  0.000000000E+00  0.000000000E+00  1.232470451E+02  1.232470451E+02  0.000000000E+00  0.00000E+00  9.000E+00
      21    -1     0     0   511   502  0.000000000E+00  0.000000000E+00 -1.239791844E+03  1.239791844E+03  0.000000000E+00  0.00000E+00  9.000E+00
      25     1     1     2     0     0  1.418220505E+01 -1.821797029E+02 -4.254976583E+01  2.254463610E+02  1.250000000E+02  0.00000E+00  9.000E+00
      25     1     1     2     0     0  2.169261511E+01  2.299485835E+02 -5.422329189E+02  6.024852354E+02  1.250000000E+02  0.00000E+00  9.000E+00
      21     1     1     2   511   501 -3.587482016E+01 -4.776888053E+01 -5.317621138E+02  5.351072923E+02  1.078959322E-05  0.00000E+00  9.000E+00
#rwgt            1           1   3.2935546381824506E-002           8      287243           0
</event>
<event>
      5   9999  3.79277E-02  8.28258E+00 -1.00000E+00  2.05719E-01
      21    -1     0     0   502   501  0.000000000E+00  0.000000000E+00  8.469896757E+01  8.469896757E+01  0.000000000E+00  0.00000E+00  9.000E+00
      21    -1     0     0   512   502  0.000000000E+00  0.000000000E+00 -4.292278395E+02  4.292278395E+02  0.000000000E+00  0.00000E+00  9.000E+00
      25     1     1     2     0     0 -4.770578652E+01 -1.145698256E+02 -2.160635657E+02  2.787661232E+02  1.250000000E+02  0.00000E+00  9.000E+00
      25     1     1     2     0     0  5.227732387E+01  1.214764997E+02 -1.045895354E+02  2.098890885E+02  1.250000000E+02  0.00000E+00  9.000E+00
      21     1     1     2   512   501 -4.571537347E+00 -6.906674109E+00 -2.387577081E+01  2.527159538E+01  4.768371582E-07  0.00000E+00  9.000E+00
#rwgt            1           1   4.2548569713490560E-002           8      287448           0
</event>
<event>
      5   9999  3.79277E-02  3.06262E+01 -1.00000E+00  1.52419E-01
      21    -1     0     0   502   501  0.000000000E+00  0.000000000E+00  4.302897761E+02  4.302897761E+02  0.000000000E+00  0.00000E+00  9.000E+00
      21    -1     0     0   511   502  0.000000000E+00  0.000000000E+00 -4.557857686E+02  4.557857686E+02  0.000000000E+00  0.00000E+00  9.000E+00
      25     1     1     2     0     0 -5.710822656E+01 -1.138667246E+02  1.561716005E+02  2.371530083E+02  1.250000000E+02  0.00000E+00  9.000E+00
      25     1     1     2     0     0  8.310001110E+01  1.300653094E+02  1.906727819E+02  2.753247288E+02  1.250000000E+02  0.00000E+00  9.000E+00
      21     1     1     2   511   501 -2.599178454E+01 -1.619858473E+01 -3.723403750E+02  3.735978076E+02  0.000000000E+00  0.00000E+00  9.000E+00
#rwgt            1           1   4.1479951131518825E-002           8      287676           0
</event>
<event>
      5   9999  3.79277E-02  7.57540E+01 -1.00000E+00  1.29506E-01
      21    -1     0     0   512   501  0.000000000E+00  0.000000000E+00  1.317460751E+02  1.317460751E+02  0.000000000E+00  0.00000E+00  9.000E+00
      21    -1     0     0   501   502  0.000000000E+00  0.000000000E+00 -6.653851643E+02  6.653851643E+02  0.000000000E+00  0.00000E+00  9.000E+00
      25     1     1     2     0     0  3.973401925E+01 -8.727248412E-01 -5.217526341E+01  1.411623606E+02  1.250000000E+02  0.00000E+00  9.000E+00
      25     1     1     2     0     0  3.581713016E+01 -4.667421336E+00 -5.429996556E+02  5.583710932E+02  1.250000000E+02  0.00000E+00  9.000E+00
      21     1     1     2   512   502 -7.555114941E+01  5.540146177E+00  6.153582985E+01  9.759778559E+01  1.784161275E-06  0.00000E+00  9.000E+00
#rwgt            1           1   4.4508537210417962E-002           8      287760           0
</event>
<event>
      5   9999  3.79277E-02  1.13705E+01 -1.00000E+00  1.89523E-01
      21    -1     0     0   502   501  0.000000000E+00  0.000000000E+00  2.274157765E+02  2.274157765E+02  0.000000000E+00  0.00000E+00  9.000E+00
      21    -1     0     0   511   502  0.000000000E+00  0.000000000E+00 -2.206155539E+02  2.206155539E+02  0.000000000E+00  0.00000E+00  9.000E+00
      25     1     1     2     0     0  8.855647729E+01 -1.357601227E+02  8.561366165E+01  2.218732964E+02  1.250000000E+02  0.00000E+00  9.000E+00
      25     1     1     2     0     0 -8.847561276E+01  1.243898978E+02 -6.386247088E+01  2.073745305E+02  1.250000000E+02  0.00000E+00  9.000E+00
      21     1     1     2   511   501 -8.086452852E-02  1.137022491E+01 -1.495096822E+01  1.878350351E+01  2.920019320E-07  0.00000E+00  9.000E+00
#rwgt            1           1   3.7548567791296096E-002           8      287902           0
</event>
<event>
      5   9999  3.79277E-02  1.36219E+02 -1.00000E+00  1.18077E-01
      21    -1     0     0   502   501  0.000000000E+00  0.000000000E+00  1.227768811E+02  1.227768811E+02  0.000000000E+00  0.00000E+00  9.000E+00
      21    -1     0     0   501   512  0.000000000E+00  0.000000000E+00 -6.601628558E+02  6.601628558E+02  0.000000000E+00  0.00000E+00  9.000E+00
      25     1     1     2     0     0  1.019024886E+02 -6.673967656E+01 -2.175232220E+02  2.788900388E+02  1.250000000E+02  0.00000E+00  9.000E+00
      25     1     1     2     0     0 -3.705427355E+01  1.865319849E+02 -1.073500758E+02  2.516271833E+02  1.250000000E+02  0.00000E+00  9.000E+00
      21     1     1     2   502   512 -6.484821505E+01 -1.197923084E+02 -2.125126770E+02  2.524225149E+02  3.814697266E-06  0.00000E+00  9.000E+00
#rwgt            1           1   3.6834853552593215E-002           8      288311           0
</event>
<event>
      5   9999  3.79277E-02  1.20954E+02 -1.00000E+00  1.20222E-01
      21    -1     0     0   511   501  0.000000000E+00  0.000000000E+00  9.145231504E+01  9.145231504E+01  0.000000000E+00  0.00000E+00  9.000E+00
      21    -1     0     0   501   502  0.000000000E+00  0.000000000E+00 -9.519934194E+02  9.519934194E+02  0.000000000E+00  0.00000E+00  9.000E+00
      25     1     1     2     0     0  1.741794251E+02 -8.017213479E+00 -4.949811825E+02  5.394757815E+02  1.250000000E+02  0.00000E+00  9.000E+00
      25     1     1     2     0     0 -1.362545611E+02  1.228718276E+02 -2.717101670E+02  3.508763405E+02  1.250000000E+02  0.00000E+00  9.000E+00
      21     1     1     2   511   502 -3.792486398E+01 -1.148546141E+02 -9.384975481E+01  1.530936124E+02  1.907348633E-06  0.00000E+00  9.000E+00
#rwgt            1           1   4.1342797323466185E-002           8      288394           0
</event>
<event>
      5   9999  3.79277E-02  3.09714E+01 -1.00000E+00  1.52085E-01
      21    -1     0     0   502   501  0.000000000E+00  0.000000000E+00  5.677833378E+02  5.677833378E+02  0.000000000E+00  0.00000E+00  9.000E+00
      21    -1     0     0   501   512  0.000000000E+00  0.000000000E+00 -1.031261282E+02  1.031261282E+02  0.000000000E+00  0.00000E+00  9.000E+00
      25     1     1     2     0     0  4.467134502E+01 -8.576272405E+01  5.652037886E+01  1.678401833E+02  1.250000000E+02  0.00000E+00  9.000E+00
      25     1     1     2     0     0 -2.936292163E+01  5.883912222E+01  4.379000904E+02  4.601148907E+02  1.250000000E+02  0.00000E+00  9.000E+00
      21     1     1     2   502   512 -1.530842339E+01  2.692360183E+01 -2.976325975E+01  4.295439201E+01  1.261592536E-06  0.00000E+00  9.000E+00
#rwgt            1           1   4.8186069702966357E-002           8      288534           0
</event>
<event>
      5   9999  3.79277E-02  8.62261E+01 -1.00000E+00  1.26794E-01
      21    -1     0     0   511   501  0.000000000E+00  0.000000000E+00  9.252843147E+02  9.252843147E+02  0.000000000E+00  0.00000E+00  9.000E+00
      21    -1     0     0   501   502  0.000000000E+00  0.000000000E+00 -3.194966574E+02  3.194966574E+02  0.000000000E+00  0.00000E+00  9.000E+00
      25     1     1     2     0     0  2.952788910E+02  2.716999454E+02  1.341454302E+02  4.411694462E+02  1.250000000E+02  0.00000E+00  9.000E+00
      25     1     1     2     0     0 -3.814927327E+02 -2.731514165E+02  2.116389148E+02  5.296833315E+02  1.250000000E+02  0.00000E+00  9.000E+00
      21     1     1     2   511   502  8.621384161E+01  1.451471094E+00  2.600033123E+02  2.739281944E+02  5.394796609E-06  0.00000E+00  9.000E+00
#rwgt            1           1  0.15657534459746192                8      288704           0
</event>
<event>
      5   9999 -3.79277E-02  1.00966E+01 -1.00000E+00  1.95276E-01
      21    -1     0     0   502   501  0.000000000E+00  0.000000000E+00  3.019195665E+02  3.019195665E+02  0.000000000E+00  0.00000E+00  9.000E+00
      21    -1     0     0   501   512  0.000000000E+00  0.000000000E+00 -4.401193148E+02  4.401193148E+02  0.000000000E+00  0.00000E+00  9.000E+00
      25     1     1     2     0     0  9.168245643E+01  2.570214299E+01  2.365215675E+02  2.839607805E+02  1.250000000E+02  0.00000E+00  9.000E+00
      25     1     1     2     0     0 -8.318817485E+01 -2.024420164E+01 -9.640808791E+01  1.795817907E+02  1.250000000E+02  0.00000E+00  9.000E+00
      21     1     1     2   502   512 -8.494281572E+00 -5.457941343E+00 -2.783132279E+02  2.784963101E+02  3.814697266E-06  0.00000E+00  9.000E+00
#rwgt            1           1 -0.10540554731861017                8      288882           0
</event>
<event>
      5   9999 -3.79277E-02  8.43620E+01 -1.00000E+00  1.27243E-01
      21    -1     0     0   511   501  0.000000000E+00  0.000000000E+00  1.369704878E+03  1.369704878E+03  0.000000000E+00  0.00000E+00  9.000E+00
      21    -1     0     0   501   502  0.000000000E+00  0.000000000E+00 -8.187353509E+01  8.187353509E+01  0.000000000E+00  0.00000E+00  9.000E+00
      25     1     1     2     0     0 -9.678698655E+01 -1.831582630E+02  2.253211150E+02  3.306195320E+02  1.250000000E+02  0.00000E+00  9.000E+00
      25     1     1     2     0     0  2.357459166E+01  2.250736276E+02  6.425781356E+02  6.926366721E+02  1.250000000E+02  0.00000E+00  9.000E+00
      21     1     1     2   511   502  7.321239489E+01 -4.191536458E+01  4.199320921E+02  4.283222087E+02  7.629394531E-06  0.00000E+00  9.000E+00
#rwgt            1           1  -6.9713848228564482E-002           8      289154           0
</event>
<event>
      5   9999  3.79277E-02  5.91317E+00 -1.00000E+00  2.26460E-01
      21    -1     0     0   512   501  0.000000000E+00  0.000000000E+00  2.001312297E+01  2.001312297E+01  0.000000000E+00  0.00000E+00  9.000E+00
      21    -1     0     0   501   502  0.000000000E+00  0.000000000E+00 -1.908008772E+03  1.908008772E+03  0.000000000E+00  0.00000E+00  9.000E+00
      25     1     1     2     0     0  5.859680585E+01  1.155348114E+02 -1.266634199E+03  1.279362760E+03  1.250000000E+02  0.00000E+00  9.000E+00
      25     1     1     2     0     0 -5.342900449E+01 -1.184087217E+02 -6.009093047E+02  6.273693301E+02  1.250000000E+02  0.00000E+00  9.000E+00
      21     1     1     2   512   502 -5.167801360E+00  2.873910224E+00 -2.045214568E+01  2.128980493E+01  5.331201500E-07  0.00000E+00  9.000E+00
#rwgt            1           1  0.11473869444504525                8      289274           0
</event>
<event>
      5   9999  3.79277E-02  6.85596E+01 -1.00000E+00  1.31680E-01
      21    -1     0     0   502   511  0.000000000E+00  0.000000000E+00  5.552753978E+01  5.552753978E+01  0.000000000E+00  0.00000E+00  9.000E+00
      21    -1     0     0   501   502  0.000000000E+00  0.000000000E+00 -1.214521403E+03  1.214521403E+03  0.000000000E+00  0.00000E+00  9.000E+00
      25     1     1     2     0     0 -1.541666835E+02 -8.237691577E+01 -4.197125025E+02  4.715261470E+02  1.250000000E+02  0.00000E+00  9.000E+00
      25     1     1     2     0     0  1.520421854E+02  1.385022062E+01 -6.794702233E+02  7.075404152E+02  1.250000000E+02  0.00000E+00  9.000E+00
      21     1     1     2   501   511  2.124498141E+00  6.852669515E+01 -5.981113777E+01  9.098238094E+01  6.743495762E-07  0.00000E+00  9.000E+00
#rwgt            1           1   5.2233969533801695E-002           8      289533           0
</event>
<event>
      5   9999  3.79277E-02  1.28478E+01 -1.00000E+00  1.83964E-01
      21    -1     0     0   502   501  0.000000000E+00  0.000000000E+00  1.728067671E+03  1.728067671E+03  0.000000000E+00  0.00000E+00  9.000E+00
      21    -1     0     0   512   502  0.000000000E+00  0.000000000E+00 -2.671327787E+02  2.671327787E+02  0.000000000E+00  0.00000E+00  9.000E+00
      25     1     1     2     0     0  1.388929615E+02 -7.860242632E+01  6.215309487E+02  6.537547831E+02  1.250000000E+02  0.00000E+00  9.000E+00
      25     1     1     2     0     0 -1.430513359E+02  6.644622659E+01  1.080966401E+03  1.099541789E+03  1.250000000E+02  0.00000E+00  9.000E+00
      21     1     1     2   512   501  4.158374352E+00  1.215619974E+01 -2.415624573E+02  2.419038777E+02  8.529922400E-06  0.00000E+00  9.000E+00
#rwgt            1           1   3.9963331126479186E-002           8      289595           0
</event>
<event>
      5   9999  3.79277E-02  1.35593E+01 -1.00000E+00  1.81617E-01
      21    -1     0     0   511   501  0.000000000E+00  0.000000000E+00  1.255150100E+03  1.255150100E+03  0.000000000E+00  0.00000E+00  9.000E+00
      21    -1     0     0   501   502  0.000000000E+00  0.000000000E+00 -1.627578524E+02  1.627578524E+02  0.000000000E+00  0.00000E+00  9.000E+00
      25     1     1     2     0     0 -6.787487782E+01  1.247930401E+02 -7.486417051E+01  2.034943388E+02  1.250000000E+02  0.00000E+00  9.000E+00
      25     1     1     2     0     0  5.792119948E+01 -1.155854277E+02  3.201607071E+02  3.672093882E+02  1.250000000E+02  0.00000E+00  9.000E+00
      21     1     1     2   511   502  9.953678343E+00 -9.207612323E+00  8.470957114E+02  8.472042257E+02  1.525878906E-05  0.00000E+00  9.000E+00
#rwgt            1           1   3.9387036586641153E-002           8      289775           0
</event>
<event>
      5   9999  3.79277E-02  1.54896E+02 -1.00000E+00  1.15843E-01
      21    -1     0     0   502   501  0.000000000E+00  0.000000000E+00  5.566516631E+02  5.566516631E+02  0.000000000E+00  0.00000E+00  9.000E+00
      21    -1     0     0   512   502  0.000000000E+00  0.000000000E+00 -2.772442705E+02  2.772442705E+02  0.000000000E+00  0.00000E+00  9.000E+00
      25     1     1     2     0     0  5.468259214E+01 -1.370855784E+02 -4.260732142E+01  1.980480384E+02  1.250000000E+02  0.00000E+00  9.000E+00
      25     1     1     2     0     0 -9.830626780E+01 -1.154057962E+01  4.222488585E+02  4.513495384E+02  1.250000000E+02  0.00000E+00  9.000E+00
      21     1     1     2   512   501  4.362367566E+01  1.486261580E+02 -1.002341445E+02  1.844983568E+02  3.814697266E-06  0.00000E+00  9.000E+00
#rwgt            1           1   3.7582667383549935E-002           8      290014           0
</event>
<event>
      5   9999  3.79277E-02  1.05306E+02 -1.00000E+00  1.22826E-01
      21    -1     0     0   502   501  0.000000000E+00  0.000000000E+00  1.223314274E+03  1.223314274E+03  0.000000000E+00  0.00000E+00  9.000E+00
      21    -1     0     0   511   502  0.000000000E+00  0.000000000E+00 -5.855912299E+01  5.855912299E+01  0.000000000E+00  0.00000E+00  9.000E+00
      25     1     1     2     0     0  1.003569596E+02 -5.870577990E+01  2.683462625E+02  3.180449725E+02  1.250000000E+02  0.00000E+00  9.000E+00
      25     1     1     2     0     0 -9.480763790E+01  1.638656814E+02  7.494625343E+02  7.830450435E+02  1.250000000E+02  0.00000E+00  9.000E+00
      21     1     1     2   511   501 -5.549321689E+00 -1.051599015E+02  1.469463544E+02  1.807833812E+02  1.907348633E-06  0.00000E+00  9.000E+00
#rwgt            1           1   2.8635215697164117E-002           8      290155           0
</event>
<event>
      5   9999  3.79277E-02  1.47139E+02 -1.00000E+00  1.16726E-01
      21    -1     0     0   502   512  0.000000000E+00  0.000000000E+00  1.063338580E+03  1.063338580E+03  0.000000000E+00  0.00000E+00  9.000E+00
      21    -1     0     0   501   502  0.000000000E+00  0.000000000E+00 -8.402252859E+01  8.402252859E+01  0.000000000E+00  0.00000E+00  9.000E+00
      25     1     1     2     0     0 -1.021961117E+02  1.058309342E+02  6.067792467E+02  6.367497830E+02  1.250000000E+02  0.00000E+00  9.000E+00
      25     1     1     2     0     0  1.315910496E+02  3.834202510E+01  1.285491504E+02  2.256904944E+02  1.250000000E+02  0.00000E+00  9.000E+00
      21     1     1     2   501   512 -2.939493786E+01 -1.441729593E+02  2.439876544E+02  2.849208312E+02  4.672030912E-06  0.00000E+00  9.000E+00
#rwgt            1           1   3.1229892409198400E-002           8      290210           0
</event>
<event>
      5   9999  3.79277E-02  2.23678E+02 -1.00000E+00  1.09907E-01
      21    -1     0     0   502   501  0.000000000E+00  0.000000000E+00  2.963772877E+02  2.963772877E+02  0.000000000E+00  0.00000E+00  9.000E+00
      21    -1     0     0   501   511  0.000000000E+00  0.000000000E+00 -4.280679270E+02  4.280679270E+02  0.000000000E+00  0.00000E+00  9.000E+00
      25     1     1     2     0     0 -1.490472912E+02 -1.855539981E+02 -1.825030955E+02  3.249273167E+02  1.250000000E+02  0.00000E+00  9.000E+00
      25     1     1     2     0     0 -7.092780709E-01  1.940751980E+01  1.105524245E+02  1.679999805E+02  1.250000000E+02  0.00000E+00  9.000E+00
      21     1     1     2   502   511  1.497565693E+02  1.661464783E+02 -5.973996823E+01  2.315179175E+02  4.422005890E-06  0.00000E+00  9.000E+00
#rwgt            1           1   4.4149242367542224E-002           8      290270           0
</event>
<event>
      5   9999  3.79277E-02  3.06812E+01 -1.00000E+00  1.52366E-01
      21    -1     0     0   502   501  0.000000000E+00  0.000000000E+00  7.764317855E+02  7.764317855E+02  0.000000000E+00  0.00000E+00  9.000E+00
      21    -1     0     0   512   502  0.000000000E+00  0.000000000E+00 -1.654538373E+02  1.654538373E+02  0.000000000E+00  0.00000E+00  9.000E+00
      25     1     1     2     0     0  1.366307707E+02  1.755314050E+02  5.381059175E+02  5.955352384E+02  1.250000000E+02  0.00000E+00  9.000E+00
      25     1     1     2     0     0 -1.450965082E+02 -1.460412685E+02  1.356917683E+02  2.764386094E+02  1.250000000E+02  0.00000E+00  9.000E+00
      21     1     1     2   512   501  8.465737493E+00 -2.949013656E+01 -6.281973751E+01  6.991177502E+01  1.651812370E-06  0.00000E+00  9.000E+00
#rwgt            1           1   3.5504876627668901E-002           8      290318           0
</event>
<event>
      5   9999  3.79277E-02  2.85828E+01 -1.00000E+00  1.54514E-01
      21    -1     0     0   511   501  0.000000000E+00  0.000000000E+00  2.147303023E+02  2.147303023E+02  0.000000000E+00  0.00000E+00  9.000E+00
      21    -1     0     0   501   502  0.000000000E+00  0.000000000E+00 -2.475387633E+03  2.475387633E+03  0.000000000E+00  0.00000E+00  9.000E+00
      25     1     1     2     0     0  2.804323007E+02 -2.538507645E+01 -7.517987646E+02  8.124734210E+02  1.250000000E+02  0.00000E+00  9.000E+00
      25     1     1     2     0     0 -2.890342114E+02  5.264282950E+01 -1.676984145E+03  1.707106577E+03  1.250000000E+02  0.00000E+00  9.000E+00
      21     1     1     2   511   502  8.601910676E+00 -2.725775306E+01  1.681255786E+02  1.705379375E+02  4.264961200E-06  0.00000E+00  9.000E+00
#rwgt            1           1   7.3600554738729354E-002           8      290396           0
</event>
<event>
      5   9999  3.79277E-02  3.72858E+01 -1.00000E+00  1.46759E-01
      21    -1     0     0   502   501  0.000000000E+00  0.000000000E+00  7.600595535E+01  7.600595535E+01  0.000000000E+00  0.00000E+00  9.000E+00
      21    -1     0     0   512   502  0.000000000E+00  0.000000000E+00 -1.264056654E+03  1.264056654E+03  0.000000000E+00  0.00000E+00  9.000E+00
      25     1     1     2     0     0 -1.144647129E+01 -1.685572488E+02 -2.426116837E+02  3.209797453E+02  1.250000000E+02  0.00000E+00  9.000E+00
      25     1     1     2     0     0 -2.477784570E+01  1.597239674E+02 -2.510450915E+02  3.236886241E+02  1.250000000E+02  0.00000E+00  9.000E+00
      21     1     1     2   512   501  3.622431699E+01  8.833281363E+00 -6.943939237E+02  6.953942401E+02  7.629394531E-06  0.00000E+00  9.000E+00
#rwgt            1           1   3.0256317716109152E-002           8      290801           0
</event>
<event>
      5   9999  3.79277E-02  8.30196E+01 -1.00000E+00  1.27575E-01
      21    -1     0     0   502   501  0.000000000E+00  0.000000000E+00  1.765699026E+03  1.765699026E+03  0.000000000E+00  0.00000E+00  9.000E+00
       2    -1     0     0   501     0  0.000000000E+00  0.000000000E+00 -3.485543490E+02  3.485543490E+02  0.000000000E+00  0.00000E+00  9.000E+00
      25     1     1     2     0     0  1.334563425E+02  2.867239120E+02  1.564623879E+03  1.601153983E+03  1.250000000E+02  0.00000E+00  9.000E+00
      25     1     1     2     0     0 -8.136764435E+01 -3.513692580E+02 -4.986832010E+01  3.849583073E+02  1.250000000E+02  0.00000E+00  9.000E+00
       2     1     1     2   502     0 -5.208869813E+01  6.464534609E+01 -9.761088165E+01  1.281410842E+02  3.303624740E-06  0.00000E+00  9.000E+00
#rwgt            1           1   2.5402917312285101E-002           8      290967           0
</event>
<event>
      5   9999  3.79277E-02  1.01692E+02 -1.00000E+00  1.23501E-01
      21    -1     0     0   502   501  0.000000000E+00  0.000000000E+00  2.351701256E+02  2.351701256E+02  0.000000000E+00  0.00000E+00  9.000E+00
      21    -1     0     0   511   502  0.000000000E+00  0.000000000E+00 -2.632387525E+02  2.632387525E+02  0.000000000E+00  0.00000E+00  9.000E+00
      25     1     1     2     0     0  9.181688967E+01 -1.401674475E+01 -9.777483375E+01  1.838796576E+02  1.250000000E+02  0.00000E+00  9.000E+00
      25     1     1     2     0     0 -7.005327618E+01  1.133523601E+02  1.001819569E+02  2.083690081E+02  1.250000000E+02  0.00000E+00  9.000E+00
      21     1     1     2   511   501 -2.176361349E+01 -9.933561538E+01 -3.047574997E+01  1.061602124E+02  1.261592536E-06  0.00000E+00  9.000E+00
#rwgt            1           1  0.13227093466824941                8      291124           0
</event>
<event>
      5   9999  3.79277E-02  1.19507E+02 -1.00000E+00  1.20444E-01
      -1    -1     0     0     0   501  0.000000000E+00  0.000000000E+00  2.664353607E+02  2.664353607E+02  0.000000000E+00  0.00000E+00  9.000E+00
      21    -1     0     0   501   502  0.000000000E+00  0.000000000E+00 -4.863922665E+02  4.863922665E+02  0.000000000E+00  0.00000E+00  9.000E+00
      25     1     1     2     0     0  1.560861328E+02  2.079894335E+01 -3.626194654E+02  4.146243524E+02  1.250000000E+02  0.00000E+00  9.000E+00
      25     1     1     2     0     0 -3.852014514E+01  6.534366776E-01 -2.413692419E+01  1.330105998E+02  1.250000000E+02  0.00000E+00  9.000E+00
      -1     1     1     2     0   502 -1.175659877E+02 -2.145238003E+01  1.667994838E+02  2.051926750E+02  2.697398305E-06  0.00000E+00  9.000E+00
#rwgt            1           1   4.1111604902164874E-002           8      291182           0
</event>
<event>
      5   9999  3.79277E-02  6.19789E+01 -1.00000E+00  1.33955E-01
      21    -1     0     0   502   501  0.000000000E+00  0.000000000E+00  6.555414749E+01  6.555414749E+01  0.000000000E+00  0.00000E+00  9.000E+00
      21    -1     0     0   511   502  0.000000000E+00  0.000000000E+00 -1.363190968E+03  1.363190968E+03  0.000000000E+00  0.00000E+00  9.000E+00
      25     1     1     2     0     0  3.968410008E+01  1.524807342E+02 -1.663671982E+02  2.610138823E+02  1.250000000E+02  0.00000E+00  9.000E+00
      25     1     1     2     0     0  1.835021229E+01 -1.307227748E+02 -4.759717786E+02  5.095088892E+02  1.250000000E+02  0.00000E+00  9.000E+00
      21     1     1     2   511   501 -5.803431237E+01 -2.175795944E+01 -6.552978438E+02  6.582223441E+02  1.078959322E-05  0.00000E+00  9.000E+00
#rwgt            1           1   4.2769472798079702E-002           8      291228           0
</event>
<event>
      5   9999  3.79277E-02  4.84493E+01 -1.00000E+00  1.39861E-01
      21    -1     0     0   512   501  0.000000000E+00  0.000000000E+00  5.502183717E+02  5.502183717E+02  0.000000000E+00  0.00000E+00  9.000E+00
      21    -1     0     0   501   502  0.000000000E+00  0.000000000E+00 -1.818877339E+02  1.818877339E+02  0.000000000E+00  0.00000E+00  9.000E+00
      25     1     1     2     0     0  1.224561226E+02  1.866872277E+02  2.980529228E+02  3.928207832E+02  1.250000000E+02  0.00000E+00  9.000E+00
      25     1     1     2     0     0 -1.613871200E+02 -1.578477989E+02  5.127617018E+00  2.580949875E+02  1.250000000E+02  0.00000E+00  9.000E+00
      21     1     1     2   512   502  3.893099735E+01 -2.883942881E+01  6.515009797E+01  8.119033486E+01  1.651812370E-06  0.00000E+00  9.000E+00
#rwgt            1           1   3.9003880520850402E-002           8      291356           0
</event>
<event>
      5   9999  3.79277E-02  2.42346E+01 -1.00000E+00  1.59769E-01
       2    -1     0     0   502     0  0.000000000E+00  0.000000000E+00  1.209804166E+03  1.209804166E+03  0.000000000E+00  0.00000E+00  9.000E+00
      21    -1     0     0   501   502  0.000000000E+00  0.000000000E+00 -9.044477107E+01  9.044477107E+01  0.000000000E+00  0.00000E+00  9.000E+00
      25     1     1     2     0     0 -8.409632718E+01  1.509470949E+00  2.382503544E+02  2.818912949E+02  1.250000000E+02  0.00000E+00  9.000E+00
      25     1     1     2     0     0  9.616712293E+01  1.950508860E+01  2.377640344E+01  1.606825484E+02  1.250000000E+02  0.00000E+00  9.000E+00
       2     1     1     2   501     0 -1.207079574E+01 -2.101455955E+01  8.573326371E+02  8.576750938E+02  1.078959322E-05  0.00000E+00  9.000E+00
#rwgt            1           1   5.2855626887254058E-002           8      291633           0
</event>
<event>
      5   9999  3.79277E-02  1.07362E+02 -1.00000E+00  1.22456E-01
       1    -1     0     0   502     0  0.000000000E+00  0.000000000E+00  1.209475956E+03  1.209475956E+03  0.000000000E+00  0.00000E+00  9.000E+00
      21    -1     0     0   501   502  0.000000000E+00  0.000000000E+00 -1.836275280E+02  1.836275280E+02  0.000000000E+00  0.00000E+00  9.000E+00
      25     1     1     2     0     0 -1.221109035E+02 -6.589172321E+01  7.841556435E+00  1.869205231E+02  1.250000000E+02  0.00000E+00  9.000E+00
      25     1     1     2     0     0  1.854632110E+02  1.525694740E+02  1.106174568E+02  2.924641325E+02  1.250000000E+02  0.00000E+00  9.000E+00
       1     1     1     2   501     0 -6.335230749E+01 -8.667775080E+01  9.073894144E+02  9.137188280E+02  1.078959322E-05  0.00000E+00  9.000E+00
#rwgt            1           1   3.6654150416101511E-002           8      291782           0
</event>
<event>
      5   9999  3.79277E-02  1.25355E+02 -1.00000E+00  1.19569E-01
      21    -1     0     0   502   511  0.000000000E+00  0.000000000E+00  7.372315397E+02  7.372315397E+02  0.000000000E+00  0.00000E+00  9.000E+00
      21    -1     0     0   501   502  0.000000000E+00  0.000000000E+00 -6.186913535E+02  6.186913535E+02  0.000000000E+00  0.00000E+00  9.000E+00
      25     1     1     2     0     0 -1.803780390E+02 -3.541855133E+02 -3.755728168E+02  5.609487994E+02  1.250000000E+02  0.00000E+00  9.000E+00
      25     1     1     2     0     0  1.501478306E+02  2.325303625E+02  1.977657443E+01  3.043531722E+02  1.250000000E+02  0.00000E+00  9.000E+00
      21     1     1     2   501   511  3.023020840E+01  1.216551508E+02  4.743364286E+02  4.906209216E+02  5.394796609E-06  0.00000E+00  9.000E+00
#rwgt            1           1   4.9073856082058449E-002           8      291892           0
</event>
<event>
      5   9999  3.79277E-02  5.43663E+01 -1.00000E+00  1.37032E-01
      21    -1     0     0   512   501  0.000000000E+00  0.000000000E+00  3.988831768E+02  3.988831768E+02  0.000000000E+00  0.00000E+00  9.000E+00
      21    -1     0     0   501   502  0.000000000E+00  0.000000000E+00 -1.350212320E+02  1.350212320E+02  0.000000000E+00  0.00000E+00  9.000E+00
      25     1     1     2     0     0 -6.526715628E+01  1.210511970E+02  9.337313043E+00  1.860789601E+02  1.250000000E+02  0.00000E+00  9.000E+00
      25     1     1     2     0     0  1.038023302E+02 -8.270099931E+01  1.875322098E+02  2.615486737E+02  1.250000000E+02  0.00000E+00  9.000E+00
      21     1     1     2   512   502 -3.853517388E+01 -3.835019770E+01  6.699242204E+01  8.627677497E+01  9.536743164E-07  0.00000E+00  9.000E+00
#rwgt            1           1   4.2783335020028145E-002           8      291992           0
</event>
<event>
      5   9999  3.79277E-02  4.42864E+01 -1.00000E+00  1.42151E-01
      21    -1     0     0   502   501  0.000000000E+00  0.000000000E+00  6.933539388E+02  6.933539388E+02  0.000000000E+00  0.00000E+00  9.000E+00
      21    -1     0     0   511   502  0.000000000E+00  0.000000000E+00 -1.325473689E+02  1.325473689E+02  0.000000000E+00  0.00000E+00  9.000E+00
      25     1     1     2     0     0  1.226581545E+02  2.192965128E+01  2.949630208E+01  1.789440256E+02  1.250000000E+02  0.00000E+00  9.000E+00
      25     1     1     2     0     0 -1.157210341E+02 -6.566938574E+01  5.634173899E+02  5.922566852E+02  1.250000000E+02  0.00000E+00  9.000E+00
      21     1     1     2   511   501 -6.937120356E+00  4.373973446E+01 -3.210712210E+01  5.470059688E+01  4.768371582E-07  0.00000E+00  9.000E+00
#rwgt            1           1   3.8911373805371477E-002           8      292140           0
</event>
<event>
      5   9999  3.79277E-02  5.44134E+00 -1.00000E+00  2.32272E-01
      21    -1     0     0   502   501  0.000000000E+00  0.000000000E+00  3.536270877E+01  3.536270877E+01  0.000000000E+00  0.00000E+00  9.000E+00
      21    -1     0     0   512   502  0.000000000E+00  0.000000000E+00 -1.089768446E+03  1.089768446E+03  0.000000000E+00  0.00000E+00  9.000E+00
      25     1     1     2     0     0 -1.240492284E+02  4.348472741E+01 -3.827405704E+02  4.235498516E+02  1.250000000E+02  0.00000E+00  9.000E+00
      25     1     1     2     0     0  1.271794131E+02 -3.903387083E+01 -5.442142144E+02  5.740142483E+02  1.250000000E+02  0.00000E+00  9.000E+00
      21     1     1     2   512   501 -3.130184657E+00 -4.450856579E+00 -1.274509522E+02  1.275670545E+02  0.000000000E+00  0.00000E+00  9.000E+00
#rwgt            1           1   5.4281253941937897E-002           8      292298           0
</event>
<event>
      5   9999  3.79277E-02  3.57906E+01 -1.00000E+00  1.47900E-01
      21    -1     0     0   502   501  0.000000000E+00  0.000000000E+00  4.153710654E+02  4.153710654E+02  0.000000000E+00  0.00000E+00  9.000E+00
      -1    -1     0     0     0   502  0.000000000E+00  0.000000000E+00 -3.196844578E+02  3.196844578E+02  0.000000000E+00  0.00000E+00  9.000E+00
      25     1     1     2     0     0 -1.125904368E+02 -1.121094181E+02  3.179417093E+02  3.767718920E+02  1.250000000E+02  0.00000E+00  9.000E+00
      25     1     1     2     0     0  7.730234021E+01  1.180858395E+02 -6.877566748E+01  2.006863467E+02  1.250000000E+02  0.00000E+00  9.000E+00
      -1     1     1     2     0   501  3.528809655E+01 -5.976421402E+00 -1.534794342E+02  1.575972845E+02  0.000000000E+00  0.00000E+00  9.000E+00
#rwgt            1           1   4.0641000839504289E-002           8      292596           0
</event>
<event>
      5   9999  3.79277E-02  8.93168E+01 -1.00000E+00  1.26076E-01
      21    -1     0     0   502   501  0.000000000E+00  0.000000000E+00  1.836647581E+03  1.836647581E+03  0.000000000E+00  0.00000E+00  9.000E+00
      21    -1     0     0   501   511  0.000000000E+00  0.000000000E+00 -1.080992955E+02  1.080992955E+02  0.000000000E+00  0.00000E+00  9.000E+00
      25     1     1     2     0     0  1.659927926E+02 -1.097285828E+02  5.124253029E+02  5.637363392E+02  1.250000000E+02  0.00000E+00  9.000E+00
      25     1     1     2     0     0 -2.402508869E+02  6.009771110E+01  1.253762826E+03  1.284086620E+03  1.250000000E+02  0.00000E+00  9.000E+00
      21     1     1     2   502   511  7.425809438E+01  4.963087173E+01 -3.763984320E+01  9.692391762E+01  2.023048729E-06  0.00000E+00  9.000E+00
#rwgt            1           1   3.5446946822688598E-002           8      292811           0
</event>
<event>
      5   9999  3.79277E-02  1.07710E+01 -1.00000E+00  1.92101E-01
      21    -1     0     0   512   501  0.000000000E+00  0.000000000E+00  1.959210981E+02  1.959210981E+02  0.000000000E+00  0.00000E+00  9.000E+00
      21    -1     0     0   501   502  0.000000000E+00  0.000000000E+00 -2.407566981E+02  2.407566981E+02  0.000000000E+00  0.00000E+00  9.000E+00
      25     1     1     2     0     0 -1.489024941E+02 -6.691731433E+01  2.170755540E+00  2.056200182E+02  1.250000000E+02  0.00000E+00  9.000E+00
      25     1     1     2     0     0  1.595069890E+02  6.503066601E+01 -5.214384219E+01  2.191242737E+02  1.250000000E+02  0.00000E+00  9.000E+00
      21     1     1     2   512   502 -1.060449495E+01  1.886648324E+00  5.137486666E+00  1.193350428E+01  8.429369702E-08  0.00000E+00  9.000E+00
#rwgt            1           1   2.6962694213835420E-002           8      292879           0
</event>
<event>
      5   9999  3.79277E-02  6.63305E+01 -1.00000E+00  1.32416E-01
      21    -1     0     0   502   501  0.000000000E+00  0.000000000E+00  1.722635859E+03  1.722635859E+03  0.000000000E+00  0.00000E+00  9.000E+00
      21    -1     0     0   511   502  0.000000000E+00  0.000000000E+00 -9.169563865E+01  9.169563865E+01  0.000000000E+00  0.00000E+00  9.000E+00
      25     1     1     2     0     0  1.034889790E+02 -1.366865019E+02  1.062648762E+03  1.083623809E+03  1.250000000E+02  0.00000E+00  9.000E+00
      25     1     1     2     0     0 -1.486774068E+02  8.812996166E+01  6.141050155E+02  6.500937098E+02  1.250000000E+02  0.00000E+00  9.000E+00
      21     1     1     2   511   501  4.518842778E+01  4.855654028E+01 -4.581355684E+01  8.061397893E+01  2.861022949E-06  0.00000E+00  9.000E+00
#rwgt            1           1   2.6512367570499552E-002           8      293082           0
</event>
<event>
      5   9999  3.79277E-02  3.16899E+01 -1.00000E+00  1.51405E-01
      21    -1     0     0   502   501  0.000000000E+00  0.000000000E+00  1.046850182E+02  1.046850182E+02  0.000000000E+00  0.00000E+00  9.000E+00
      21    -1     0     0   512   502  0.000000000E+00  0.000000000E+00 -1.159988716E+03  1.159988716E+03  0.000000000E+00  0.00000E+00  9.000E+00
      25     1     1     2     0     0  2.038585215E+02 -2.055662992E+02 -3.008525975E+02  4.358360765E+02  1.250000000E+02  0.00000E+00  9.000E+00
      25     1     1     2     0     0 -1.885100706E+02  1.778413496E+02 -5.382753193E+02  6.103514657E+02  1.250000000E+02  0.00000E+00  9.000E+00
      21     1     1     2   512   501 -1.534845084E+01  2.772494960E+01 -2.161757811E+02  2.184861920E+02  2.697398305E-06  0.00000E+00  9.000E+00
#rwgt            1           1  0.12314661919274830                8      293187           0
</event>
<event>
      5   9999  3.79277E-02  1.93882E+02 -1.00000E+00  1.12141E-01
      21    -1     0     0   502   501  0.000000000E+00  0.000000000E+00  1.957145093E+02  1.957145093E+02  0.000000000E+00  0.00000E+00  9.000E+00
      21    -1     0     0   501   511  0.000000000E+00  0.000000000E+00 -1.464615826E+03  1.464615826E+03  0.000000000E+00  0.00000E+00  9.000E+00
      25     1     1     2     0     0  8.157534152E+01  1.140326037E+02  8.296552524E+01  2.053442218E+02  1.250000000E+02  0.00000E+00  9.000E+00
      25     1     1     2     0     0 -2.380676503E+02  4.240213903E-01 -3.895967151E+02  4.733782698E+02  1.250000000E+02  0.00000E+00  9.000E+00
      21     1     1     2   502   511  1.564923088E+02 -1.144566250E+02 -9.622701274E+02  9.816078442E+02  1.078959322E-05  0.00000E+00  9.000E+00
#rwgt            1           1   3.9927486897188419E-002           8      293357           0
</event>
<event>
      5   9999  3.79277E-02  2.95152E+01 -1.00000E+00  1.53533E-01
      21    -1     0     0   502   512  0.000000000E+00  0.000000000E+00  6.758845544E+01  6.758845544E+01  0.000000000E+00  0.00000E+00  9.000E+00
      21    -1     0     0   501   502  0.000000000E+00  0.000000000E+00 -6.430924239E+02  6.430924239E+02  0.000000000E+00  0.00000E+00  9.000E+00
      25     1     1     2     0     0 -7.056786171E+01 -7.093469847E+01 -1.251961247E+02  2.032501518E+02  1.250000000E+02  0.00000E+00  9.000E+00
      25     1     1     2     0     0  8.443284166E+01  4.487884916E+01 -4.512439302E+02  4.779007224E+02  1.250000000E+02  0.00000E+00  9.000E+00
      21     1     1     2   501   512 -1.386497995E+01  2.605584931E+01  9.360864521E-01  2.953000525E+01  7.669394751E-07  0.00000E+00  9.000E+00
#rwgt            1           1   4.1965298316173148E-002           8      293422           0
</event>
<event>
      5   9999  3.79277E-02  1.13656E+01 -1.00000E+00  1.89543E-01
      -4    -1     0     0     0   501  0.000000000E+00  0.000000000E+00  1.438279714E+02  1.438279714E+02  0.000000000E+00  0.00000E+00  9.000E+00
      21    -1     0     0   501   502  0.000000000E+00  0.000000000E+00 -1.237118067E+03  1.237118067E+03  0.000000000E+00  0.00000E+00  9.000E+00
      25     1     1     2     0     0  6.331261188E+00 -1.412488529E+02 -9.399459975E+02  9.587047520E+02  1.250000000E+02  0.00000E+00  9.000E+00
      25     1     1     2     0     0 -1.653207346E+01  1.362367667E+02 -2.575177507E+02  3.174494573E+02  1.250000000E+02  0.00000E+00  9.000E+00
      -4     1     1     2     0   502  1.020081227E+01  5.012086242E+00  1.041736525E+02  1.047918291E+02  1.348699152E-06  0.00000E+00  9.000E+00
#rwgt            1           1   4.5251608725368778E-002           8      293581           0
</event>
<event>
      5   9999  3.79277E-02  1.12391E+02 -1.00000E+00  1.21588E-01
      21    -1     0     0   502   501  0.000000000E+00  0.000000000E+00  2.325059737E+02  2.325059737E+02  0.000000000E+00  0.00000E+00  9.000E+00
      21    -1     0     0   511   502  0.000000000E+00  0.000000000E+00 -3.051913473E+02  3.051913473E+02  0.000000000E+00  0.00000E+00  9.000E+00
      25     1     1     2     0     0  1.519083821E+02 -2.741679486E+01  9.543020693E+01  2.203627954E+02  1.250000000E+02  0.00000E+00  9.000E+00
      25     1     1     2     0     0 -7.574314835E+01 -5.523125953E+01 -1.073344595E+02  1.895605517E+02  1.250000000E+02  0.00000E+00  9.000E+00
      21     1     1     2   511   501 -7.616523378E+01  8.264805438E+01 -6.078112102E+01  1.277739739E+02  2.431401974E-06  0.00000E+00  9.000E+00
#rwgt            1           1   2.8917416747921240E-002           8      293790           0
</event>
<event>
      5   9999  3.79277E-02  8.63528E+01 -1.00000E+00  1.26764E-01
      21    -1     0     0   502   512  0.000000000E+00  0.000000000E+00  1.484148828E+02  1.484148828E+02  0.000000000E+00  0.00000E+00  9.000E+00
      21    -1     0     0   501   502  0.000000000E+00  0.000000000E+00 -4.969476978E+02  4.969476978E+02  0.000000000E+00  0.00000E+00  9.000E+00
      25     1     1     2     0     0  5.677399104E+01  8.788441594E+01 -3.470479072E+02  3.834243166E+02  1.250000000E+02  0.00000E+00  9.000E+00
      25     1     1     2     0     0 -9.465973774E+01 -1.028624646E+01 -4.741231606E+01  1.641316561E+02  1.250000000E+02  0.00000E+00  9.000E+00
      21     1     1     2   501   512  3.788574670E+01 -7.759816948E+01  4.592740834E+01  9.780660789E+01  2.132480600E-06  0.00000E+00  9.000E+00
#rwgt            1           1   3.8258887078576415E-002           8      293887           0
</event>
<event>
      5   9999  3.79277E-02  2.92167E+01 -1.00000E+00  1.53842E-01
      21    -1     0     0   502   511  0.000000000E+00  0.000000000E+00  4.784995491E+02  4.784995491E+02  0.000000000E+00  0.00000E+00  9.000E+00
      21    -1     0     0   501   502  0.000000000E+00  0.000000000E+00 -2.091380913E+02  2.091380913E+02  0.000000000E+00  0.00000E+00  9.000E+00
      25     1     1     2     0     0  1.364403658E+02 -2.338366309E+01 -8.451576685E+01  2.047698317E+02  1.250000000E+02  0.00000E+00  9.000E+00
      25     1     1     2     0     0 -1.334721818E+02 -5.681831945E+00  6.750698200E+01  1.950110231E+02  1.250000000E+02  0.00000E+00  9.000E+00
      21     1     1     2   501   511 -2.968184012E+00  2.906549503E+01  2.863702427E+02  2.878567856E+02  6.607249480E-06  0.00000E+00  9.000E+00
#rwgt            1           1   3.9006062150524275E-002           8      293986           0
</event>
<event>
      5   9999  3.79277E-02  3.35418E+01 -1.00000E+00  1.49748E-01
      21    -1     0     0   502   501  0.000000000E+00  0.000000000E+00  5.563457474E+01  5.563457474E+01  0.000000000E+00  0.00000E+00  9.000E+00
      21    -1     0     0   501   512  0.000000000E+00  0.000000000E+00 -7.159630183E+02  7.159630183E+02  0.000000000E+00  0.00000E+00  9.000E+00
      25     1     1     2     0     0 -7.998584978E+01  1.054954937E+02 -2.838688294E+02  3.372440476E+02  1.250000000E+02  0.00000E+00  9.000E+00
      25     1     1     2     0     0  1.048585028E+02 -8.299214595E+01 -3.142201643E+02  3.636513627E+02  1.250000000E+02  0.00000E+00  9.000E+00
      21     1     1     2   502   512 -2.487265304E+01 -2.250334773E+01 -6.223944980E+01  7.070218271E+01  1.348699152E-06  0.00000E+00  9.000E+00
#rwgt            1           1   3.7221490999523960E-002           8      294174           0
</event>
<event>
      5   9999  3.79277E-02  1.43985E+01 -1.00000E+00  1.79075E-01
       2    -1     0     0   502     0  0.000000000E+00  0.000000000E+00  3.899663663E+03  3.899663663E+03  0.000000000E+00  0.00000E+00  9.000E+00
      21    -1     0     0   501   502  0.000000000E+00  0.000000000E+00 -2.041060114E+02  2.041060114E+02  0.000000000E+00  0.00000E+00  9.000E+00
      25     1     1     2     0     0  2.105951409E+01 -2.487198684E+01  2.532803930E+01  1.316382484E+02  1.250000000E+02  0.00000E+00  9.000E+00
      25     1     1     2     0     0 -3.517741714E+01  2.770070640E+01 -1.217367247E+02  1.801377527E+02  1.250000000E+02  0.00000E+00  9.000E+00
       2     1     1     2   501     0  1.411790304E+01 -2.828719554E+00  3.791966337E+03  3.791993673E+03  0.000000000E+00  0.00000E+00  9.000E+00
#rwgt            1           1   8.0266538531185164E-002           8      294317           0
</event>
<event>
      5   9999  3.79277E-02  4.71096E+01 -1.00000E+00  1.40567E-01
      21    -1     0     0   511   501  0.000000000E+00  0.000000000E+00  7.825223398E+02  7.825223398E+02  0.000000000E+00  0.00000E+00  9.000E+00
      21    -1     0     0   501   502  0.000000000E+00  0.000000000E+00 -5.855498062E+01  5.855498062E+01  0.000000000E+00  0.00000E+00  9.000E+00
      25     1     1     2     0     0 -7.363129720E+01 -4.983127185E+01  9.487692887E+01  1.803645065E+02  1.250000000E+02  0.00000E+00  9.000E+00
      25     1     1     2     0     0  9.100204359E+01  6.041214148E+00  4.727410990E+02  4.974203603E+02  1.250000000E+02  0.00000E+00  9.000E+00
      21     1     1     2   511   502 -1.737074639E+01  4.379005770E+01  1.563493314E+02  1.632924536E+02  1.907348633E-06  0.00000E+00  9.000E+00
#rwgt            1           1   4.8322107992900522E-002           8      294599           0
</event>
<event>
      5   9999  3.79277E-02  2.45592E+01 -1.00000E+00  1.59332E-01
      21    -1     0     0   502   501  0.000000000E+00  0.000000000E+00  8.446476682E+02  8.446476682E+02  0.000000000E+00  0.00000E+00  9.000E+00
      21    -1     0     0   501   512  0.000000000E+00  0.000000000E+00 -5.879701047E+01  5.879701047E+01  0.000000000E+00  0.00000E+00  9.000E+00
      25     1     1     2     0     0  1.343565317E+02 -6.381929512E+01  2.582815505E+02  3.232010819E+02  1.250000000E+02  0.00000E+00  9.000E+00
      25     1     1     2     0     0 -1.588388309E+02  6.576141002E+01  5.001022995E+02  5.433982400E+02  1.250000000E+02  0.00000E+00  9.000E+00
      21     1     1     2   502   512  2.448229924E+01 -1.942114899E+00  2.746680773E+01  3.684535674E+01  5.840038640E-07  0.00000E+00  9.000E+00
#rwgt            1           1   3.9716658566120888E-002           8      294651           0
</event>
<event>
      5   9999  3.79277E-02  4.36395E+01 -1.00000E+00  1.42533E-01
       2    -1     0     0   502     0  0.000000000E+00  0.000000000E+00  4.214507368E+02  4.214507368E+02  0.000000000E+00  0.00000E+00  9.000E+00
      21    -1     0     0   501   502  0.000000000E+00  0.000000000E+00 -8.094313723E+02  8.094313723E+02  0.000000000E+00  0.00000E+00  9.000E+00
      25     1     1     2     0     0  5.521101367E+01  9.848991933E+01 -5.950896086E+02  6.184700175E+02  1.250000000E+02  0.00000E+00  9.000E+00
      25     1     1     2     0     0 -8.168195188E+01 -1.331842792E+02 -1.516158858E+02  2.510425667E+02  1.250000000E+02  0.00000E+00  9.000E+00
       2     1     1     2   501     0  2.647093821E+01  3.469435983E+01  3.587248589E+02  3.613695249E+02  3.814697266E-06  0.00000E+00  9.000E+00
#rwgt            1           1   1.6583252346866788E-002           8      294834           0
</event>
<event>
      5   9999  3.79277E-02  4.19814E+01 -1.00000E+00  1.43550E-01
      21    -1     0     0   502   501  0.000000000E+00  0.000000000E+00  3.450774051E+02  3.450774051E+02  0.000000000E+00  0.00000E+00  9.000E+00
      21    -1     0     0   501   511  0.000000000E+00  0.000000000E+00 -3.007660432E+02  3.007660432E+02  0.000000000E+00  0.00000E+00  9.000E+00
      25     1     1     2     0     0 -6.931261095E+01 -6.749542512E+01  1.232886675E+02  2.004618816E+02  1.250000000E+02  0.00000E+00  9.000E+00
      25     1     1     2     0     0  9.598005481E+01  9.991894096E+01  1.330874663E+02  2.292013075E+02  1.250000000E+02  0.00000E+00  9.000E+00
      21     1     1     2   502   511 -2.666744385E+01 -3.242351584E+01 -2.120647720E+02  2.161802591E+02  2.697398305E-06  0.00000E+00  9.000E+00
#rwgt            1           1   5.0332392538631421E-002           8      294933           0
</event>
<event>
      5   9999  3.79277E-02  2.02491E+02 -1.00000E+00  1.11453E-01
      21    -1     0     0   502   501  0.000000000E+00  0.000000000E+00  1.140785296E+03  1.140785296E+03  0.000000000E+00  0.00000E+00  9.000E+00
      21    -1     0     0   501   512  0.000000000E+00  0.000000000E+00 -3.810420483E+02  3.810420483E+02  0.000000000E+00  0.00000E+00  9.000E+00
      25     1     1     2     0     0 -9.152384436E+01  3.533455181E+01  7.800394819E+02  7.960601346E+02  1.250000000E+02  0.00000E+00  9.000E+00
      25     1     1     2     0     0  1.175664021E+02  1.654743523E+02  2.773830869E+02  3.657458094E+02  1.250000000E+02  0.00000E+00  9.000E+00
      21     1     1     2   502   512 -2.604255777E+01 -2.008089041E+02 -2.976793208E+02  3.600214005E+02  3.814697266E-06  0.00000E+00  9.000E+00
#rwgt            2          11   7.1888253716711698E-003           8      295110           0
</event>
<event>
      5   9999  3.79277E-02  6.93069E+00 -1.00000E+00  2.16166E-01
      21    -1     0     0   502   501  0.000000000E+00  0.000000000E+00  2.705238919E+02  2.705238919E+02  0.000000000E+00  0.00000E+00  9.000E+00
      21    -1     0     0   501   511  0.000000000E+00  0.000000000E+00 -1.461903425E+02  1.461903425E+02  0.000000000E+00  0.00000E+00  9.000E+00
      25     1     1     2     0     0  2.615876032E+01  1.311799683E+02  1.461993330E+01  1.836605763E+02  1.250000000E+02  0.00000E+00  9.000E+00
      25     1     1     2     0     0 -2.811497508E+01 -1.245310785E+02  1.237892361E+02  2.173642480E+02  1.250000000E+02  0.00000E+00  9.000E+00
      21     1     1     2   502   511  1.956214755E+00 -6.648889833E+00 -1.407561999E+01  1.568941013E+01  0.000000000E+00  0.00000E+00  9.000E+00
#rwgt            1           1   3.7690134173296239E-002           8      295160           0
</event>
<event>
      5   9999  3.79277E-02  2.70548E+01 -1.00000E+00  1.56224E-01
      21    -1     0     0   502   501  0.000000000E+00  0.000000000E+00  3.790087801E+01  3.790087801E+01  0.000000000E+00  0.00000E+00  9.000E+00
      21    -1     0     0   512   502  0.000000000E+00  0.000000000E+00 -1.485231821E+03  1.485231821E+03  0.000000000E+00  0.00000E+00  9.000E+00
      25     1     1     2     0     0  7.091762690E+01 -1.194063929E+02 -5.436532203E+02  5.748660891E+02  1.250000000E+02  0.00000E+00  9.000E+00
      25     1     1     2     0     0 -9.559869282E+01  1.304881193E+02 -4.554760466E+02  4.992491246E+02  1.250000000E+02  0.00000E+00  9.000E+00
      21     1     1     2   512   501  2.468106593E+01 -1.108172639E+01 -4.482016758E+02  4.490174850E+02  0.000000000E+00  0.00000E+00  9.000E+00
#rwgt            1           1   3.8563283541749267E-002           8      295474           0
</event>
<event>
      5   9999  3.79277E-02  5.71609E+01 -1.00000E+00  1.35838E-01
      21    -1     0     0   502   501  0.000000000E+00  0.000000000E+00  4.134684933E+02  4.134684933E+02  0.000000000E+00  0.00000E+00  9.000E+00
       1    -1     0     0   501     0  0.000000000E+00  0.000000000E+00 -3.816064231E+02  3.816064231E+02  0.000000000E+00  0.00000E+00  9.000E+00
      25     1     1     2     0     0 -5.508404473E+01 -8.641405068E+01  1.638409446E+01  1.624656231E+02  1.250000000E+02  0.00000E+00  9.000E+00
      25     1     1     2     0     0  4.025847196E+01  3.120926379E+01  3.070909523E+02  3.354468895E+02  1.250000000E+02  0.00000E+00  9.000E+00
       1     1     1     2   502     0  1.482557277E+01  5.520478690E+01 -2.916129765E+02  2.971624037E+02  0.000000000E+00  0.00000E+00  9.000E+00
#rwgt            1           1   4.4934371260636423E-002           8      295641           0
</event>
<event>
      5   9999  3.79277E-02  2.29913E+01 -1.00000E+00  1.61525E-01
      21    -1     0     0   502   511  0.000000000E+00  0.000000000E+00  1.789140264E+02  1.789140264E+02  0.000000000E+00  0.00000E+00  9.000E+00
      21    -1     0     0   501   502  0.000000000E+00  0.000000000E+00 -1.097684872E+03  1.097684872E+03  0.000000000E+00  0.00000E+00  9.000E+00
      25     1     1     2     0     0  2.129571573E+02 -1.382957575E+02 -9.480824185E+02  9.894249541E+02  1.250000000E+02  0.00000E+00  9.000E+00
      25     1     1     2     0     0 -1.948611298E+02  1.241135483E+02  2.652739031E+01  2.640146496E+02  1.250000000E+02  0.00000E+00  9.000E+00
      21     1     1     2   501   511 -1.809602755E+01  1.418220922E+01  2.784182391E+00  2.315929496E+01  3.305237444E-07  0.00000E+00  9.000E+00
#rwgt            1           1   3.1550915140980886E-002           8      295762           0
</event>
<event>
      5   9999  3.79277E-02  5.98120E+01 -1.00000E+00  1.34776E-01
      21    -1     0     0   502   512  0.000000000E+00  0.000000000E+00  3.274092896E+03  3.274092896E+03  0.000000000E+00  0.00000E+00  9.000E+00
      21    -1     0     0   501   502  0.000000000E+00  0.000000000E+00 -3.538497241E+01  3.538497241E+01  0.000000000E+00  0.00000E+00  9.000E+00
      25     1     1     2     0     0  5.418793928E+01  7.851915551E+01  1.163888145E+03  1.174462517E+03  1.250000000E+02  0.00000E+00  9.000E+00
      25     1     1     2     0     0  2.646156896E+00 -9.715690579E+01  1.819452099E+02  2.411960321E+02  1.250000000E+02  0.00000E+00  9.000E+00
      21     1     1     2   501   512 -5.683409617E+01  1.863775028E+01  1.892874569E+03  1.893819319E+03  3.051757812E-05  0.00000E+00  9.000E+00
#rwgt            1           1   3.3135886588981756E-002           8      296136           0
</event>
<event>
      5   9999  3.79277E-02  2.78537E+01 -1.00000E+00  1.55313E-01
      21    -1     0     0   502   501  0.000000000E+00  0.000000000E+00  1.338989181E+02  1.338989181E+02  0.000000000E+00  0.00000E+00  9.000E+00
      -1    -1     0     0     0   502  0.000000000E+00  0.000000000E+00 -5.854273716E+02  5.854273716E+02  0.000000000E+00  0.00000E+00  9.000E+00
      25     1     1     2     0     0  1.020225649E+02 -1.102738555E+02 -9.352674567E+01  2.166591311E+02  1.250000000E+02  0.00000E+00  9.000E+00
      25     1     1     2     0     0 -7.651399474E+01  9.908725977E+01 -3.735413628E+01  1.808120791E+02  1.250000000E+02  0.00000E+00  9.000E+00
      -1     1     1     2     0   501 -2.550857013E+01  1.118659572E+01 -3.206475715E+02  3.218550795E+02  0.000000000E+00  0.00000E+00  9.000E+00
#rwgt            1           1   2.9738490835550111E-002           8      296265           0
</event>
<event>
      5   9999  3.79277E-02  7.16097E+01 -1.00000E+00  1.30723E-01
      21    -1     0     0   502   501  0.000000000E+00  0.000000000E+00  7.903610954E+02  7.903610954E+02  0.000000000E+00  0.00000E+00  9.000E+00
      21    -1     0     0   501   511  0.000000000E+00  0.000000000E+00 -1.050741919E+02  1.050741919E+02  0.000000000E+00  0.00000E+00  9.000E+00
      25     1     1     2     0     0  1.469838966E+02  1.573072825E+02  4.720136867E+02  5.336401104E+02  1.250000000E+02  0.00000E+00  9.000E+00
      25     1     1     2     0     0 -9.092873650E+01 -1.127452726E+02  2.179760481E+02  2.900311865E+02  1.250000000E+02  0.00000E+00  9.000E+00
      21     1     1     2   502   511 -5.605516009E+01 -4.456200991E+01 -4.702831315E+00  7.176399043E+01  2.075063608E-06  0.00000E+00  9.000E+00
#rwgt            1           1   4.3982127506454534E-002           8      296383           0
</event>
<event>
      5   9999  3.79277E-02  4.66084E+01 -1.00000E+00  1.40839E-01
      21    -1     0     0   502   512  0.000000000E+00  0.000000000E+00  2.017626018E+03  2.017626018E+03  0.000000000E+00  0.00000E+00  9.000E+00
      21    -1     0     0   501   502  0.000000000E+00  0.000000000E+00 -1.142172693E+03  1.142172693E+03  0.000000000E+00  0.00000E+00  9.000E+00
      25     1     1     2     0     0  2.304816041E+02  2.255594870E+01  9.692774635E+01  2.804470158E+02  1.250000000E+02  0.00000E+00  9.000E+00
      25     1     1     2     0     0 -2.055309982E+02 -6.192362450E+01 -1.035424227E+03  1.064803200E+03  1.250000000E+02  0.00000E+00  9.000E+00
      21     1     1     2   501   512 -2.495060584E+01  3.936767580E+01  1.813949805E+03  1.814548495E+03  2.157918644E-05  0.00000E+00  9.000E+00
#rwgt            1           1  0.12527015497382252                8      296602           0
</event>
<event>
      5   9999  3.79277E-02  1.28197E+02 -1.00000E+00  1.19163E-01
      21    -1     0     0   511   501  0.000000000E+00  0.000000000E+00  2.247832502E+03  2.247832502E+03  0.000000000E+00  0.00000E+00  9.000E+00
      21    -1     0     0   501   502  0.000000000E+00  0.000000000E+00 -7.465824970E+02  7.465824970E+02  0.000000000E+00  0.00000E+00  9.000E+00
      25     1     1     2     0     0  3.458338376E+01 -6.423976808E+01 -6.615681537E+02  6.772150177E+02  1.250000000E+02  0.00000E+00  9.000E+00
      25     1     1     2     0     0  7.350618064E+01  1.331679685E+02  5.354098374E+01  2.040306432E+02  1.250000000E+02  0.00000E+00  9.000E+00
      21     1     1     2   511   502 -1.080895644E+02 -6.892820040E+01  2.109277175E+03  2.113169338E+03  0.000000000E+00  0.00000E+00  9.000E+00
#rwgt            2          11   2.1591634761463193E-002           8      296726           0
</event>
<event>
      5   9999  3.79277E-02  2.83133E+01 -1.00000E+00  1.54806E-01
      21    -1     0     0   502   501  0.000000000E+00  0.000000000E+00  1.735905314E+03  1.735905314E+03  0.000000000E+00  0.00000E+00  9.000E+00
      21    -1     0     0   501   512  0.000000000E+00  0.000000000E+00 -3.118709373E+01  3.118709373E+01  0.000000000E+00  0.00000E+00  9.000E+00
      25     1     1     2     0     0 -1.606101710E+02 -5.061664037E+01  7.423008802E+02  7.713580673E+02  1.250000000E+02  0.00000E+00  9.000E+00
      25     1     1     2     0     0  1.602968586E+02  2.230503238E+01  9.320334852E+02  9.542033405E+02  1.250000000E+02  0.00000E+00  9.000E+00
      21     1     1     2   502   512  3.133123460E-01  2.831160799E+01  3.038385444E+01  4.153099953E+01  3.371747881E-07  0.00000E+00  9.000E+00
#rwgt            1           1   3.2282306252071888E-002           8      296791           0
</event>
<event>
      5   9999  3.79277E-02  5.30013E+01 -1.00000E+00  1.37646E-01
      21    -1     0     0   511   501  0.000000000E+00  0.000000000E+00  4.357841342E+02  4.357841342E+02  0.000000000E+00  0.00000E+00  9.000E+00
      21    -1     0     0   501   502  0.000000000E+00  0.000000000E+00 -3.325092578E+02  3.325092578E+02  0.000000000E+00  0.00000E+00  9.000E+00
      25     1     1     2     0     0  1.645339985E+02  7.859079449E+01 -1.160831363E+02  2.496963039E+02  1.250000000E+02  0.00000E+00  9.000E+00
      25     1     1     2     0     0 -1.115595375E+02 -8.027609089E+01 -8.880085441E+01  2.059135083E+02  1.250000000E+02  0.00000E+00  9.000E+00
      21     1     1     2   511   502 -5.297446099E+01  1.685296398E+00  3.081588671E+02  3.126835798E+02  5.394796609E-06  0.00000E+00  9.000E+00
#rwgt            1           1   4.2590525122600607E-002           8      296939           0
</event>
<event>
      5   9999  3.79277E-02  2.82653E+02 -1.00000E+00  1.06439E-01
      21    -1     0     0   502   512  0.000000000E+00  0.000000000E+00  2.232068852E+03  2.232068852E+03  0.000000000E+00  0.00000E+00  9.000E+00
      21    -1     0     0   501   502  0.000000000E+00  0.000000000E+00 -1.637336747E+02  1.637336747E+02  0.000000000E+00  0.00000E+00  9.000E+00
      25     1     1     2     0     0 -2.020504582E+02 -2.090119524E+02  2.061702524E+02  3.776791719E+02  1.250000000E+02  0.00000E+00  9.000E+00
      25     1     1     2     0     0 -1.422733070E+01  2.703228434E+01 -5.882526293E+00  1.288129087E+02  1.250000000E+02  0.00000E+00  9.000E+00
      21     1     1     2   501   512  2.162777889E+02  1.819796681E+02  1.868047451E+03  1.889310446E+03  3.051757812E-05  0.00000E+00  9.000E+00
#rwgt            2          11   4.3502547311771408E-004           8      297102           0
</event>
<event>
      5   9999  3.79277E-02  3.56971E+01 -1.00000E+00  1.47974E-01
      21    -1     0     0   502   511  0.000000000E+00  0.000000000E+00  9.192033422E+02  9.192033422E+02  0.000000000E+00  0.00000E+00  9.000E+00
      21    -1     0     0   501   502  0.000000000E+00  0.000000000E+00 -6.629040107E+02  6.629040107E+02  0.000000000E+00  0.00000E+00  9.000E+00
      25     1     1     2     0     0  3.445481373E+01  1.191472491E+02 -3.778855010E+02  4.169000516E+02  1.250000000E+02  0.00000E+00  9.000E+00
      25     1     1     2     0     0 -4.273844679E+01 -1.538699203E+02 -2.263623063E+02  3.039200897E+02  1.250000000E+02  0.00000E+00  9.000E+00
      21     1     1     2   501   511  8.283633057E+00  3.472267121E+01  8.605471389E+02  8.612872115E+02  0.000000000E+00  0.00000E+00  9.000E+00
#rwgt            1           1   4.2547295233383672E-002           8      297227           0
</event>
<event>
      5   9999  3.79277E-02  3.34261E+01 -1.00000E+00  1.49848E-01
      21    -1     0     0   512   501  0.000000000E+00  0.000000000E+00  2.067665975E+02  2.067665975E+02  0.000000000E+00  0.00000E+00  9.000E+00
      21    -1     0     0   501   502  0.000000000E+00  0.000000000E+00 -1.656145685E+03  1.656145685E+03  0.000000000E+00  0.00000E+00  9.000E+00
      25     1     1     2     0     0 -6.866669650E+01 -2.162648194E+02 -7.854677812E+02  8.270853781E+02  1.250000000E+02  0.00000E+00  9.000E+00
      25     1     1     2     0     0  4.527699424E+01  1.923854453E+02 -8.321063325E+02  8.643425909E+02  1.250000000E+02  0.00000E+00  9.000E+00
      21     1     1     2   512   502  2.338970225E+01  2.387937403E+01  1.681950266E+02  1.714843131E+02  5.046370146E-06  0.00000E+00  9.000E+00
#rwgt            1           1   3.3714975088849380E-002           8      297392           0
</event>
<event>
      5   9999  3.79277E-02  3.56006E+01 -1.00000E+00  1.48050E-01
      21    -1     0     0   502   501  0.000000000E+00  0.000000000E+00  2.566971268E+02  2.566971268E+02  0.000000000E+00  0.00000E+00  9.000E+00
      21    -1     0     0   501   511  0.000000000E+00  0.000000000E+00 -6.939720637E+02  6.939720637E+02  0.000000000E+00  0.00000E+00  9.000E+00
      25     1     1     2     0     0  1.038255202E+02  6.283275446E+01  1.827276158E+02  2.524719296E+02  1.250000000E+02  0.00000E+00  9.000E+00
      25     1     1     2     0     0 -7.257501365E+01 -4.577968916E+01 -1.108904690E+02  1.878419779E+02  1.250000000E+02  0.00000E+00  9.000E+00
      21     1     1     2   502   511 -3.125050652E+01 -1.705306530E+01 -5.091120837E+02  5.103552831E+02  0.000000000E+00  0.00000E+00  9.000E+00
#rwgt            1           1   3.3147570149270396E-002           8      297486           0
</event>
<event>
      5   9999  3.79277E-02  1.56717E+01 -1.00000E+00  1.75610E-01
      21    -1     0     0   502   501  0.000000000E+00  0.000000000E+00  2.334877693E+02  2.334877693E+02  0.000000000E+00  0.00000E+00  9.000E+00
      21    -1     0     0   501   512  0.000000000E+00  0.000000000E+00 -3.645121901E+02  3.645121901E+02  0.000000000E+00  0.00000E+00  9.000E+00
      25     1     1     2     0     0 -1.657943295E+02 -2.844429605E+01  7.898164559E+01  2.239641445E+02  1.250000000E+02  0.00000E+00  9.000E+00
      25     1     1     2     0     0  1.753007900E+02  4.090341603E+01 -6.557121259E+01  2.287532302E+02  1.250000000E+02  0.00000E+00  9.000E+00
      21     1     1     2   502   512 -9.506460497E+00 -1.245911998E+01 -1.444348538E+02  1.452825848E+02  0.000000000E+00  0.00000E+00  9.000E+00
#rwgt            1           1   8.7202240757260671E-002           8      297648           0
</event>
<event>
      5   9999  3.79277E-02  7.85085E+00 -1.00000E+00  2.08745E-01
      21    -1     0     0   502   501  0.000000000E+00  0.000000000E+00  9.248798600E+01  9.248798600E+01  0.000000000E+00  0.00000E+00  9.000E+00
      21    -1     0     0   511   502  0.000000000E+00  0.000000000E+00 -4.923409023E+02  4.923409023E+02  0.000000000E+00  0.00000E+00  9.000E+00
      25     1     1     2     0     0  5.343664877E+01 -1.074988799E+02 -5.915804355E+01  1.831288037E+02  1.250000000E+02  0.00000E+00  9.000E+00
      25     1     1     2     0     0 -5.443725053E+01  1.152857013E+02 -2.321418129E+02  2.928634980E+02  1.250000000E+02  0.00000E+00  9.000E+00
      21     1     1     2   511   501  1.000601763E+00 -7.786821364E+00 -1.085530599E+02  1.088365867E+02  1.348699152E-06  0.00000E+00  9.000E+00
#rwgt            1           1   4.8033632335431266E-002           8      297861           0
</event>
<event>
      5   9999  3.79277E-02  4.13649E+01 -1.00000E+00  1.43942E-01
      21    -1     0     0   502   501  0.000000000E+00  0.000000000E+00  4.844175468E+01  4.844175468E+01  0.000000000E+00  0.00000E+00  9.000E+00
      21    -1     0     0   512   502  0.000000000E+00  0.000000000E+00 -8.786923028E+02  8.786923028E+02  0.000000000E+00  0.00000E+00  9.000E+00
      25     1     1     2     0     0 -5.344441889E+01  3.426616786E+01 -6.128104151E+02  6.286430474E+02  1.250000000E+02  0.00000E+00  9.000E+00
      25     1     1     2     0     0  5.037280391E+01 -7.551683614E+01 -1.305552099E+02  2.022618964E+02  1.250000000E+02  0.00000E+00  9.000E+00
      21     1     1     2   512   501  3.071614976E+00  4.125066828E+01 -8.688492311E+01  9.622911366E+01  1.348699152E-06  0.00000E+00  9.000E+00
#rwgt            1           1   4.3788152242465087E-002           8      298225           0
</event>
<event>
      5   9999  3.79277E-02  1.41527E+01 -1.00000E+00  1.79796E-01
      21    -1     0     0   502   511  0.000000000E+00  0.000000000E+00  9.828370541E+02  9.828370541E+02  0.000000000E+00  0.00000E+00  9.000E+00
      21    -1     0     0   501   502  0.000000000E+00  0.000000000E+00 -9.550230733E+01  9.550230733E+01  0.000000000E+00  0.00000E+00  9.000E+00
      25     1     1     2     0     0 -5.185454267E+01  4.927088518E+01  2.983497694E+02  3.312915613E+02  1.250000000E+02  0.00000E+00  9.000E+00
      25     1     1     2     0     0  6.219447900E+01 -3.960735312E+01 -1.225278371E+01  1.456434906E+02  1.250000000E+02  0.00000E+00  9.000E+00
      21     1     1     2   501   511 -1.033993633E+01 -9.663532061E+00  6.012377612E+02  6.014043096E+02  7.629394531E-06  0.00000E+00  9.000E+00
#rwgt            1           1   3.8353352698346103E-002           8      298304           0
</event>
<event>
      5   9999  3.79277E-02  3.09437E+02 -1.00000E+00  1.05157E-01
      21    -1     0     0   512   501  0.000000000E+00  0.000000000E+00  3.140361994E+02  3.140361994E+02  0.000000000E+00  0.00000E+00  9.000E+00
      21    -1     0     0   501   502  0.000000000E+00  0.000000000E+00 -8.606752949E+02  8.606752949E+02  0.000000000E+00  0.00000E+00  9.000E+00
      25     1     1     2     0     0 -2.047093611E+02  2.189621125E+02 -9.707281376E+01  3.389667541E+02  1.250000000E+02  0.00000E+00  9.000E+00
      25     1     1     2     0     0  1.110109178E+02  7.594740772E+01 -4.903777040E+02  5.236284228E+02  1.250000000E+02  0.00000E+00  9.000E+00
      21     1     1     2   512   502  9.369844330E+01 -2.949095202E+02  4.081142228E+01  3.121163174E+02  3.198720900E-06  0.00000E+00  9.000E+00
#rwgt            2          11   1.5444470803860520E-003           8      298485           0
</event>
<event>
      5   9999  3.79277E-02  6.73226E+01 -1.00000E+00  1.32084E-01
      21    -1     0     0   511   501  0.000000000E+00  0.000000000E+00  2.592729064E+02  2.592729064E+02  0.000000000E+00  0.00000E+00  9.000E+00
      21    -1     0     0   501   502  0.000000000E+00  0.000000000E+00 -2.236057336E+02  2.236057336E+02  0.000000000E+00  0.00000E+00  9.000E+00
      25     1     1     2     0     0 -1.435353629E+01  1.600951194E+02 -3.153359115E+01  2.060481464E+02  1.250000000E+02  0.00000E+00  9.000E+00
      25     1     1     2     0     0  7.232316021E+01 -1.258628166E+02  1.596511571E+01  1.922289599E+02  1.250000000E+02  0.00000E+00  9.000E+00
      21     1     1     2   511   502 -5.796962392E+01 -3.423230285E+01  5.123564824E+01  8.460153371E+01  9.536743164E-07  0.00000E+00  9.000E+00
#rwgt            1           1   4.4556609419652678E-002           8      298535           0
</event>
<event>
      5   9999  3.79277E-02  1.29343E+02 -1.00000E+00  1.19002E-01
      21    -1     0     0   502   501  0.000000000E+00  0.000000000E+00  1.133056876E+03  1.133056876E+03  0.000000000E+00  0.00000E+00  9.000E+00
      21    -1     0     0   501   512  0.000000000E+00  0.000000000E+00 -1.008246909E+02  1.008246909E+02  0.000000000E+00  0.00000E+00  9.000E+00
      25     1     1     2     0     0  4.854419494E+00 -4.182905640E+01  7.892578446E+02  8.002038369E+02  1.250000000E+02  0.00000E+00  9.000E+00
      25     1     1     2     0     0  1.124365920E+02  9.635007834E+01  2.342901617E+02  3.040430968E+02  1.250000000E+02  0.00000E+00  9.000E+00
      21     1     1     2   502   512 -1.172910115E+02 -5.452102194E+01  8.684179017E+00  1.296346334E+02  1.702649219E-06  0.00000E+00  9.000E+00
#rwgt            1           1   4.3396775821388130E-002           8      298698           0
</event>
<event>
      5   9999  3.79277E-02  1.69475E+02 -1.00000E+00  1.14331E-01
      21    -1     0     0   502   511  0.000000000E+00  0.000000000E+00  4.187347855E+02  4.187347855E+02  0.000000000E+00  0.00000E+00  9.000E+00
      21    -1     0     0   501   502  0.000000000E+00  0.000000000E+00 -5.535456918E+02  5.535456918E+02  0.000000000E+00  0.00000E+00  9.000E+00
      25     1     1     2     0     0  1.559410486E+02  3.716675421E+01 -2.868273977E+02  3.515592899E+02  1.250000000E+02  0.00000E+00  9.000E+00
      25     1     1     2     0     0 -2.088244302E+02  1.238457856E+02 -1.215557742E+02  2.989083931E+02  1.250000000E+02  0.00000E+00  9.000E+00
      21     1     1     2   501   511  5.288338161E+01 -1.610125398E+02  2.735722656E+02  3.218127942E+02  3.814697266E-06  0.00000E+00  9.000E+00
#rwgt            1           1   3.6222279119806480E-002           8      298847           0
</event>
<event>
      5   9999  3.79277E-02  2.14391E+01 -1.00000E+00  1.63917E-01
      21    -1     0     0   502   512  0.000000000E+00  0.000000000E+00  2.322679468E+01  2.322679468E+01  0.000000000E+00  0.00000E+00  9.000E+00
      21    -1     0     0   501   502  0.000000000E+00  0.000000000E+00 -2.454324750E+03  2.454324750E+03  0.000000000E+00  0.00000E+00  9.000E+00
      25     1     1     2     0     0 -1.545385439E+02 -2.315423562E+01 -1.848170537E+03  1.858972193E+03  1.250000000E+02  0.00000E+00  9.000E+00
      25     1     1     2     0     0  1.355717257E+02  1.315956532E+01 -5.359973306E+02  5.669841315E+02  1.250000000E+02  0.00000E+00  9.000E+00
      21     1     1     2   501   512  1.896681822E+01  9.994670298E+00 -4.693008853E+01  5.159522107E+01  9.536743164E-07  0.00000E+00  9.000E+00
#rwgt            1           1  0.37359040057751669                8      298968           0
</event>
<event>
      5   9999  3.79277E-02  1.44229E+02 -1.00000E+00  1.17073E-01
      21    -1     0     0   502   511  0.000000000E+00  0.000000000E+00  1.279351142E+02  1.279351142E+02  0.000000000E+00  0.00000E+00  9.000E+00
      21    -1     0     0   501   502  0.000000000E+00  0.000000000E+00 -1.304604839E+03  1.304604839E+03  0.000000000E+00  0.00000E+00  9.000E+00
      25     1     1     2     0     0  1.475106795E-01 -8.780080182E+01 -1.677238435E+02  2.268596267E+02  1.250000000E+02  0.00000E+00  9.000E+00
      25     1     1     2     0     0  4.913527449E+00 -5.633957181E+01 -1.047452302E+03  1.056399363E+03  1.250000000E+02  0.00000E+00  9.000E+00
      21     1     1     2   501   511 -5.061038129E+00  1.441403736E+02  3.850642085E+01  1.492809628E+02  3.989505894E-06  0.00000E+00  9.000E+00
#rwgt            1           1   3.1417859297510717E-002           8      299213           0
</event>
<event>
      5   9999  3.79277E-02  4.05080E+01 -1.00000E+00  1.44501E-01
      21    -1     0     0   512   501  0.000000000E+00  0.000000000E+00  1.084957926E+03  1.084957926E+03  0.000000000E+00  0.00000E+00  9.000E+00
      21    -1     0     0   501   502  0.000000000E+00  0.000000000E+00 -4.372561823E+01  4.372561823E+01  0.000000000E+00  0.00000E+00  9.000E+00
      25     1     1     2     0     0 -1.352766745E+02  4.747526186E+01  3.789045746E+02  4.239662201E+02  1.250000000E+02  0.00000E+00  9.000E+00
      25     1     1     2     0     0  1.293311616E+02 -8.754461162E+01  5.606086926E+02  5.952291278E+02  1.250000000E+02  0.00000E+00  9.000E+00
      21     1     1     2   512   502  5.945512908E+00  4.006934976E+01  1.017190407E+02  1.094881965E+02  1.348699152E-06  0.00000E+00  9.000E+00
#rwgt            1           1   4.1406133069721351E-002           8      299397           0
</event>
<event>
      5   9999  3.79277E-02  1.57819E+02 -1.00000E+00  1.15526E-01
      21    -1     0     0   502   501  0.000000000E+00  0.000000000E+00  6.344449749E+01  6.344449749E+01  0.000000000E+00  0.00000E+00  9.000E+00
       2    -1     0     0   501     0  0.000000000E+00  0.000000000E+00 -2.044378322E+03  2.044378322E+03  0.000000000E+00  0.00000E+00  9.000E+00
      25     1     1     2     0     0 -1.885178106E+00  3.119896447E+01 -4.834255190E+01  1.376187909E+02  1.250000000E+02  0.00000E+00  9.000E+00
      25     1     1     2     0     0  1.445935121E+02  3.618849985E+01 -6.663084474E+02  6.941245121E+02  1.250000000E+02  0.00000E+00  9.000E+00
       2     1     1     2   502     0 -1.427083340E+02 -6.738746432E+01 -1.266282825E+03  1.276079516E+03  1.525878906E-05  0.00000E+00  9.000E+00
#rwgt            1           1   5.1583876538200471E-002           8      299556           0
</event>
<event>
      5   9999  3.79277E-02  1.32565E+01 -1.00000E+00  1.82593E-01
      21    -1     0     0   502   501  0.000000000E+00  0.000000000E+00  9.370353373E+02  9.370353373E+02  0.000000000E+00  0.00000E+00  9.000E+00
      21    -1     0     0   501   511  0.000000000E+00  0.000000000E+00 -1.288775785E+02  1.288775785E+02  0.000000000E+00  0.00000E+00  9.000E+00
      25     1     1     2     0     0 -2.448064782E+02  8.587655277E+01  2.709857493E+02  3.954279586E+02  1.250000000E+02  0.00000E+00  9.000E+00
      25     1     1     2     0     0  2.321451768E+02 -8.194894730E+01  5.709466272E+02  6.342019112E+02  1.250000000E+02  0.00000E+00  9.000E+00
      21     1     1     2   502   511  1.266130142E+01 -3.927605478E+00 -3.377461764E+01  3.628304611E+01  6.743495762E-07  0.00000E+00  9.000E+00
#rwgt            1           1   3.5047050628021666E-002           8      299652           0
</event>
<event>
      5   9999  3.79277E-02  2.92338E+01 -1.00000E+00  1.53824E-01
      21    -1     0     0   502   501  0.000000000E+00  0.000000000E+00  2.479914130E+03  2.479914130E+03  0.000000000E+00  0.00000E+00  9.000E+00
      21    -1     0     0   501   512  0.000000000E+00  0.000000000E+00 -2.551384448E+01  2.551384448E+01  0.000000000E+00  0.00000E+00  9.000E+00
      25     1     1     2     0     0  1.059453041E+02  3.039087669E+01  3.766367395E+02  4.118594983E+02  1.250000000E+02  0.00000E+00  9.000E+00
      25     1     1     2     0     0 -7.811577115E+01 -3.934252794E+01  2.040551718E+03  2.046246863E+03  1.250000000E+02  0.00000E+00  9.000E+00
      21     1     1     2   502   512 -2.782953291E+01  8.951651246E+00  3.721182726E+01  4.732161293E+01  1.651812370E-06  0.00000E+00  9.000E+00
#rwgt            1           1   6.6071960561362358E-002           8      299958           0
</event>
<event>
      5   9999  3.79277E-02  4.60994E+01 -1.00000E+00  1.41118E-01
      21    -1     0     0   511   501  0.000000000E+00  0.000000000E+00  2.263165971E+02  2.263165971E+02  0.000000000E+00  0.00000E+00  9.000E+00
      21    -1     0     0   501   502  0.000000000E+00  0.000000000E+00 -1.572593207E+03  1.572593207E+03  0.000000000E+00  0.00000E+00  9.000E+00
      25     1     1     2     0     0 -1.084628137E+02  7.820623079E+01 -5.929599623E+02  6.205698295E+02  1.250000000E+02  0.00000E+00  9.000E+00
      25     1     1     2     0     0  1.537034477E+02 -8.706280777E+01 -9.510215881E+02  9.753316068E+02  1.250000000E+02  0.00000E+00  9.000E+00
      21     1     1     2   511   502 -4.524063405E+01  8.856576977E+00  1.977049403E+02  2.030083677E+02  2.697398305E-06  0.00000E+00  9.000E+00
#rwgt            1           1   5.3894749003903904E-002           8      300100           0
</event>
<event>
      5   9999  3.79277E-02  7.71009E+01 -1.00000E+00  1.29130E-01
      21    -1     0     0   502   501  0.000000000E+00  0.000000000E+00  2.026321814E+02  2.026321814E+02  0.000000000E+00  0.00000E+00  9.000E+00
      21    -1     0     0   512   502  0.000000000E+00  0.000000000E+00 -2.216571039E+02  2.216571039E+02  0.000000000E+00  0.00000E+00  9.000E+00
      25     1     1     2     0     0 -1.182605608E+02 -4.053983189E+01 -2.368904075E+01  1.783681834E+02  1.250000000E+02  0.00000E+00  9.000E+00
      25     1     1     2     0     0  4.214117154E+01  5.280316585E+01  5.661390625E+01  1.529515840E+02  1.250000000E+02  0.00000E+00  9.000E+00
      21     1     1     2   512   501  7.611938926E+01 -1.226333396E+01 -5.194978804E+01  9.296951790E+01  6.743495762E-07  0.00000E+00  9.000E+00
#rwgt            1           1   4.9565641506329729E-002           8      300261           0
</event>
<event>
      5   9999  3.79277E-02  6.25788E+01 -1.00000E+00  1.33734E-01
      21    -1     0     0   511   501  0.000000000E+00  0.000000000E+00  3.710734693E+02  3.710734693E+02  0.000000000E+00  0.00000E+00  9.000E+00
      21    -1     0     0   501   502  0.000000000E+00  0.000000000E+00 -8.216606271E+02  8.216606271E+02  0.000000000E+00  0.00000E+00  9.000E+00
      25     1     1     2     0     0  5.627159405E+01  4.192085072E+02 -2.207414665E+02  4.932079276E+02  1.250000000E+02  0.00000E+00  9.000E+00
      25     1     1     2     0     0 -3.982561023E+01 -4.795876190E+02 -3.188963521E+02  5.906862509E+02  1.250000000E+02  0.00000E+00  9.000E+00
      21     1     1     2   511   502 -1.644598382E+01  6.037911182E+01  8.905066083E+01  1.088399179E+02  9.536743164E-07  0.00000E+00  9.000E+00
#rwgt            1           1  0.13116900880358698                8      300332           0
</event>
<event>
      5   9999  3.79277E-02  9.60088E+00 -1.00000E+00  1.97824E-01
      21    -1     0     0   502   501  0.000000000E+00  0.000000000E+00  3.298548326E+02  3.298548326E+02  0.000000000E+00  0.00000E+00  9.000E+00
      21    -1     0     0   512   502  0.000000000E+00  0.000000000E+00 -4.190074563E+02  4.190074563E+02  0.000000000E+00  0.00000E+00  9.000E+00
      25     1     1     2     0     0  2.516071677E+02 -3.267324269E+01  5.432338124E+01  2.880099605E+02  1.250000000E+02  0.00000E+00  9.000E+00
      25     1     1     2     0     0 -2.590291583E+02  3.876347346E+01  2.575077696E+01  2.913534181E+02  1.250000000E+02  0.00000E+00  9.000E+00
      21     1     1     2   512   501  7.421990580E+00 -6.090230768E+00 -1.692267819E+02  1.694989102E+02  2.697398305E-06  0.00000E+00  9.000E+00
#rwgt            1           1   2.6580543972489826E-002           8      300499           0
</event>
<event>
      5   9999  3.79277E-02  9.16072E+01 -1.00000E+00  1.25565E-01
      21    -1     0     0   502   501  0.000000000E+00  0.000000000E+00  6.589004535E+02  6.589004535E+02  0.000000000E+00  0.00000E+00  9.000E+00
       1    -1     0     0   501     0  0.000000000E+00  0.000000000E+00 -1.256405265E+02  1.256405265E+02  0.000000000E+00  0.00000E+00  9.000E+00
      25     1     1     2     0     0  8.255248181E+01 -1.106842749E+02  9.555342609E+01  2.093355636E+02  1.250000000E+02  0.00000E+00  9.000E+00
      25     1     1     2     0     0 -9.285069771E+00  1.656730665E+02  4.366956073E+02  4.835926291E+02  1.250000000E+02  0.00000E+00  9.000E+00
       1     1     1     2   502     0 -7.326741204E+01 -5.498879163E+01  1.010893593E+00  9.161278720E+01  1.497992916E-06  0.00000E+00  9.000E+00
#rwgt            1           1   4.3760424005176525E-002           8      300782           0
</event>
<event>
      5   9999  3.79277E-02  5.33009E+01 -1.00000E+00  1.37510E-01
      21    -1     0     0   511   501  0.000000000E+00  0.000000000E+00  1.744146689E+02  1.744146689E+02  0.000000000E+00  0.00000E+00  9.000E+00
      21    -1     0     0   501   502  0.000000000E+00  0.000000000E+00 -5.891897943E+02  5.891897943E+02  0.000000000E+00  0.00000E+00  9.000E+00
      25     1     1     2     0     0  2.372870734E+02  1.222791241E+01 -2.976596360E+02  4.008502663E+02  1.250000000E+02  0.00000E+00  9.000E+00
      25     1     1     2     0     0 -2.426667189E+02 -6.525667705E+01 -1.278073717E+02  3.083914633E+02  1.250000000E+02  0.00000E+00  9.000E+00
      21     1     1     2   511   502  5.379645407E+00  5.302876464E+01  1.069188229E+01  5.436273365E+01  8.760057960E-07  0.00000E+00  9.000E+00
#rwgt            1           1   4.1154707803813639E-002           8      300854           0
</event>
<event>
      5   9999  3.79277E-02  1.41544E+01 -1.00000E+00  1.79791E-01
       1    -1     0     0   502     0  0.000000000E+00  0.000000000E+00  2.487833290E+02  2.487833290E+02  0.000000000E+00  0.00000E+00  9.000E+00
      21    -1     0     0   501   502  0.000000000E+00  0.000000000E+00 -3.273959744E+02  3.273959744E+02  0.000000000E+00  0.00000E+00  9.000E+00
      25     1     1     2     0     0 -1.327191731E+02  1.291638954E+02 -4.711037896E+01  2.283464004E+02  1.250000000E+02  0.00000E+00  9.000E+00
      25     1     1     2     0     0  1.419591966E+02 -1.398862795E+02 -1.159000855E+02  2.622563909E+02  1.250000000E+02  0.00000E+00  9.000E+00
       1     1     1     2   501     0 -9.240023526E+00  1.072238417E+01  8.439781915E+01  8.557651216E+01  1.651812370E-06  0.00000E+00  9.000E+00
#rwgt            1           1  0.19616503377507771                8      301025           0
</event>
<event>
      5   9999  3.79277E-02  6.40259E+01 -1.00000E+00  1.33213E-01
      21    -1     0     0   502   501  0.000000000E+00  0.000000000E+00  4.562909183E+02  4.562909183E+02  0.000000000E+00  0.00000E+00  9.000E+00
      21    -1     0     0   501   511  0.000000000E+00  0.000000000E+00 -9.894660782E+01  9.894660782E+01  0.000000000E+00  0.00000E+00  9.000E+00
      25     1     1     2     0     0 -1.287384898E+01  1.057972497E+02  2.072987393E+02  2.644930270E+02  1.250000000E+02  0.00000E+00  9.000E+00
      25     1     1     2     0     0  7.657214446E+01 -1.122661216E+02  1.182297466E+02  2.192492836E+02  1.250000000E+02  0.00000E+00  9.000E+00
      21     1     1     2   502   511 -6.369829548E+01  6.468871825E+00  3.181582459E+01  7.149521553E+01  1.651812370E-06  0.00000E+00  9.000E+00
#rwgt            1           1   3.9265250147971345E-002           8      301323           0
</event>
<event>
      5   9999  3.79277E-02  1.50311E+02 -1.00000E+00  1.16358E-01
      21    -1     0     0   502   512  0.000000000E+00  0.000000000E+00  9.581067193E+02  9.581067193E+02  0.000000000E+00  0.00000E+00  9.000E+00
      21    -1     0     0   501   502  0.000000000E+00  0.000000000E+00 -2.370022046E+02  2.370022046E+02  0.000000000E+00  0.00000E+00  9.000E+00
      25     1     1     2     0     0  5.022447743E+01 -6.088507854E+01 -1.292389993E+01  1.483964896E+02  1.250000000E+02  0.00000E+00  9.000E+00
      25     1     1     2     0     0 -1.913682043E+02  9.196402895E+00 -6.168127797E+01  2.369302502E+02  1.250000000E+02  0.00000E+00  9.000E+00
      21     1     1     2   501   512  1.411437268E+02  5.168867565E+01  7.957096926E+02  8.097821841E+02  0.000000000E+00  0.00000E+00  9.000E+00
#rwgt            2          11   2.5352751704753079E-003           8      301561           0
</event>
<event>
      5   9999  3.79277E-02  9.18799E+01 -1.00000E+00  1.25505E-01
       1    -1     0     0   502     0  0.000000000E+00  0.000000000E+00  1.973955621E+03  1.973955621E+03  0.000000000E+00  0.00000E+00  9.000E+00
      21    -1     0     0   501   502  0.000000000E+00  0.000000000E+00 -7.170774006E+01  7.170774006E+01  0.000000000E+00  0.00000E+00  9.000E+00
      25     1     1     2     0     0  8.599423324E+01 -7.176923464E+01  6.922413762E+01  1.815566369E+02  1.250000000E+02  0.00000E+00  9.000E+00
      25     1     1     2     0     0 -3.941266408E+01  1.509656530E+02  7.183056842E+02  7.456085048E+02  1.250000000E+02  0.00000E+00  9.000E+00
       1     1     1     2   501     0 -4.658156916E+01 -7.919641837E+01  1.114718059E+03  1.118498219E+03  2.157918644E-05  0.00000E+00  9.000E+00
#rwgt            1           1   3.1562380947989029E-002           8      301596           0
</event>
<event>
      5   9999  3.79277E-02  9.47557E+01 -1.00000E+00  1.24889E-01
       1    -1     0     0   502     0  0.000000000E+00  0.000000000E+00  6.923293197E+02  6.923293197E+02  0.000000000E+00  0.00000E+00  9.000E+00
      21    -1     0     0   501   502  0.000000000E+00  0.000000000E+00 -1.514332757E+02  1.514332757E+02  0.000000000E+00  0.00000E+00  9.000E+00
      25     1     1     2     0     0 -4.398853605E+01  1.686823209E+02  3.673953508E+01  2.176315927E+02  1.250000000E+02  0.00000E+00  9.000E+00
      25     1     1     2     0     0  1.230123932E+02 -1.163958989E+02  1.473016485E+02  2.569101590E+02  1.250000000E+02  0.00000E+00  9.000E+00
       1     1     1     2   501     0 -7.902385720E+01 -5.228642201E+01  3.568548605E+02  3.692208437E+02  0.000000000E+00  0.00000E+00  9.000E+00
#rwgt            2          17   1.7436139629703709E-004           8      301643           0
</event>
<event>
      5   9999  3.79277E-02  5.55618E+01 -1.00000E+00  1.36511E-01
      21    -1     0     0   502   501  0.000000000E+00  0.000000000E+00  3.700452608E+02  3.700452608E+02  0.000000000E+00  0.00000E+00  9.000E+00
      21    -1     0     0   501   511  0.000000000E+00  0.000000000E+00 -6.717618662E+02  6.717618662E+02  0.000000000E+00  0.00000E+00  9.000E+00
      25     1     1     2     0     0  3.147229808E+01 -9.674495554E+01  5.544621545E+00  1.612632469E+02  1.250000000E+02  0.00000E+00  9.000E+00
      25     1     1     2     0     0 -8.611829112E+01  8.669888187E+01  2.585015048E+02  3.120594241E+02  1.250000000E+02  0.00000E+00  9.000E+00
      21     1     1     2   502   511  5.464599304E+01  1.004607367E+01 -5.657627318E+02  5.684844561E+02  7.629394531E-06  0.00000E+00  9.000E+00
#rwgt            1           1   3.7257410742876904E-002           8      301662           0
</event>
<event>
      5   9999  3.79277E-02  4.35027E+01 -1.00000E+00  1.42615E-01
      21    -1     0     0   502   501  0.000000000E+00  0.000000000E+00  1.619530535E+02  1.619530535E+02  0.000000000E+00  0.00000E+00  9.000E+00
      21    -1     0     0   501   512  0.000000000E+00  0.000000000E+00 -6.382761235E+02  6.382761235E+02  0.000000000E+00  0.00000E+00  9.000E+00
      25     1     1     2     0     0 -2.463044303E+02 -3.510010371E+01 -4.587659796E+01  2.821835430E+02  1.250000000E+02  0.00000E+00  9.000E+00
      25     1     1     2     0     0  2.028024038E+02  3.485169319E+01 -3.292047150E+02  4.078531597E+02  1.250000000E+02  0.00000E+00  9.000E+00
      21     1     1     2   502   512  4.350202651E+01  2.484105173E-01 -1.012417570E+02  1.101924742E+02  1.348699152E-06  0.00000E+00  9.000E+00
#rwgt            1           1   4.4042737372137986E-002           8      301788           0
</event>
<event>
      5   9999  3.79277E-02  6.27547E+01 -1.00000E+00  1.33670E-01
      21    -1     0     0   502   501  0.000000000E+00  0.000000000E+00  2.691724364E+01  2.691724364E+01  0.000000000E+00  0.00000E+00  9.000E+00
       2    -1     0     0   501     0  0.000000000E+00  0.000000000E+00 -1.886280198E+03  1.886280198E+03  0.000000000E+00  0.00000E+00  9.000E+00
      25     1     1     2     0     0 -1.027456695E+02  1.961559379E+01 -4.688631141E+02  4.963860029E+02  1.250000000E+02  0.00000E+00  9.000E+00
      25     1     1     2     0     0  1.392746133E+02 -7.064287614E+01 -8.788157900E+02  9.012935297E+02  1.250000000E+02  0.00000E+00  9.000E+00
       2     1     1     2   502     0 -3.652894374E+01  5.102728235E+01 -5.116840503E+02  5.155179091E+02  9.344061824E-06  0.00000E+00  9.000E+00
#rwgt            1           1   6.6925213064479211E-002           8      302012           0
</event>
<event>
      5   9999  3.79277E-02  7.85866E+01 -1.00000E+00  1.28725E-01
      21    -1     0     0   511   501  0.000000000E+00  0.000000000E+00  2.194621876E+02  2.194621876E+02  0.000000000E+00  0.00000E+00  9.000E+00
      21    -1     0     0   501   502  0.000000000E+00  0.000000000E+00 -4.895488613E+02  4.895488613E+02  0.000000000E+00  0.00000E+00  9.000E+00
      25     1     1     2     0     0  9.108522394E+01  6.545570674E+01  5.963872946E+01  1.782210583E+02  1.250000000E+02  0.00000E+00  9.000E+00
      25     1     1     2     0     0 -5.895203033E+01 -1.371725962E+02 -3.872156283E+02  4.334196648E+02  1.250000000E+02  0.00000E+00  9.000E+00
      21     1     1     2   511   502 -3.213319361E+01  7.171688948E+01  5.749022515E+01  9.737032585E+01  1.784161275E-06  0.00000E+00  9.000E+00
#rwgt            1           1   4.2087486933552805E-002           8      302130           0
</event>
<event>
      5   9999  3.79277E-02  5.13679E+01 -1.00000E+00  1.38410E-01
      21    -1     0     0   502   501  0.000000000E+00  0.000000000E+00  1.126659560E+03  1.126659560E+03  0.000000000E+00  0.00000E+00  9.000E+00
      21    -1     0     0   501   512  0.000000000E+00  0.000000000E+00 -2.032382126E+02  2.032382126E+02  0.000000000E+00  0.00000E+00  9.000E+00
      25     1     1     2     0     0  1.032619699E+01 -2.589767922E+01  1.446353090E+02  1.931882314E+02  1.250000000E+02  0.00000E+00  9.000E+00
      25     1     1     2     0     0  3.662694007E+01  5.063429264E+00  9.495146335E+02  9.584206855E+02  1.250000000E+02  0.00000E+00  9.000E+00
      21     1     1     2   502   512 -4.695313705E+01  2.083424996E+01 -1.707285949E+02  1.782888560E+02  6.031565972E-06  0.00000E+00  9.000E+00
#rwgt            1           1   5.5291360336999301E-002           8      302209           0
</event>
<event>
      5   9999  3.79277E-02  1.47732E+01 -1.00000E+00  1.78009E-01
      21    -1     0     0   502   501  0.000000000E+00  0.000000000E+00  5.142273576E+01  5.142273576E+01  0.000000000E+00  0.00000E+00  9.000E+00
      21    -1     0     0   501   511  0.000000000E+00  0.000000000E+00 -8.757020652E+02  8.757020652E+02  0.000000000E+00  0.00000E+00  9.000E+00
      25     1     1     2     0     0  3.988097135E+01 -1.204053758E+02 -3.268243356E+02  3.721922792E+02  1.250000000E+02  0.00000E+00  9.000E+00
      25     1     1     2     0     0 -2.758553004E+01  1.285950253E+02 -2.601947210E+02  3.172127596E+02  1.250000000E+02  0.00000E+00  9.000E+00
      21     1     1     2   502   511 -1.229544132E+01 -8.189649453E+00 -2.372602729E+02  2.377197621E+02  2.697398305E-06  0.00000E+00  9.000E+00
#rwgt            1           1   3.6755840289676711E-002           8      302325           0
</event>
<event>
      5   9999  3.79277E-02  1.56857E+01 -1.00000E+00  1.75574E-01
      21    -1     0     0   502   512  0.000000000E+00  0.000000000E+00  2.537369576E+02  2.537369576E+02  0.000000000E+00  0.00000E+00  9.000E+00
      21    -1     0     0   501   502  0.000000000E+00  0.000000000E+00 -4.600390309E+02  4.600390309E+02  0.000000000E+00  0.00000E+00  9.000E+00
      25     1     1     2     0     0 -7.906300891E+01 -6.104921977E+01 -1.395258149E+02  2.122979501E+02  1.250000000E+02  0.00000E+00  9.000E+00
      25     1     1     2     0     0  6.372915659E+01  5.774573005E+01 -2.635368803E+02  3.040931798E+02  1.250000000E+02  0.00000E+00  9.000E+00
      21     1     1     2   501   512  1.533385233E+01  3.303489713E+00  1.967606219E+02  1.973848586E+02  2.697398305E-06  0.00000E+00  9.000E+00
#rwgt            1           1   3.5047321971544608E-002           8      302531           0
</event>
<event>
      5   9999 -3.79277E-02  7.28536E+01 -1.00000E+00  1.30348E-01
      21    -1     0     0   502   501  0.000000000E+00  0.000000000E+00  1.909953523E+02  1.909953523E+02  0.000000000E+00  0.00000E+00  9.000E+00
      21    -1     0     0   501   511  0.000000000E+00  0.000000000E+00 -7.081486038E+02  7.081486038E+02  0.000000000E+00  0.00000E+00  9.000E+00
      25     1     1     2     0     0 -1.113783584E+02 -9.543548726E+01 -3.100207267E+01  1.951901623E+02  1.250000000E+02  0.00000E+00  9.000E+00
      25     1     1     2     0     0  1.226119432E+02  2.345320405E+01  3.299997152E+01  1.797157186E+02  1.250000000E+02  0.00000E+00  9.000E+00
      21     1     1     2   502   511 -1.123358487E+01  7.198228320E+01 -5.191511504E+02  5.242380752E+02  0.000000000E+00  0.00000E+00  9.000E+00
#rwgt            1           1  -2.0216782985595750E-002           8      302759           0
</event>
<event>
      5   9999  3.79277E-02  1.58031E+01 -1.00000E+00  1.75276E-01
      21    -1     0     0   512   501  0.000000000E+00  0.000000000E+00  3.810379741E+02  3.810379741E+02  0.000000000E+00  0.00000E+00  9.000E+00
      21    -1     0     0   501   502  0.000000000E+00  0.000000000E+00 -1.294003832E+02  1.294003832E+02  0.000000000E+00  0.00000E+00  9.000E+00
      25     1     1     2     0     0 -2.364036629E+01  7.103851064E+01 -5.890334540E+01  1.571621488E+02  1.250000000E+02  0.00000E+00  9.000E+00
      25     1     1     2     0     0  3.802565578E+01 -7.758076059E+01  2.709945238E+02  3.106891643E+02  1.250000000E+02  0.00000E+00  9.000E+00
      21     1     1     2   512   502 -1.438528948E+01  6.542249953E+00  3.954641249E+01  4.258704415E+01  6.743495762E-07  0.00000E+00  9.000E+00
#rwgt            1           1   4.5908449115231301E-002           8      302921           0
</event>
<event>
      5   9999  3.79277E-02  2.77815E+01 -1.00000E+00  1.55394E-01
      21    -1     0     0   502   511  0.000000000E+00  0.000000000E+00  5.435810317E+02  5.435810317E+02  0.000000000E+00  0.00000E+00  9.000E+00
      21    -1     0     0   501   502  0.000000000E+00  0.000000000E+00 -1.654219171E+02  1.654219171E+02  0.000000000E+00  0.00000E+00  9.000E+00
      25     1     1     2     0     0  1.679959198E+02 -2.605735829E+01  3.593682841E+02  4.167399412E+02  1.250000000E+02  0.00000E+00  9.000E+00
      25     1     1     2     0     0 -1.928097101E+02  1.356383527E+01 -3.392923362E+01  2.326709153E+02  1.250000000E+02  0.00000E+00  9.000E+00
      21     1     1     2   501   511  2.481379025E+01  1.249352301E+01  5.272006416E+01  5.959209233E+01  6.743495762E-07  0.00000E+00  9.000E+00
#rwgt            1           1   3.8761900835064769E-002           8      303134           0
</event>
<event>
      5   9999  3.79277E-02  8.17235E+01 -1.00000E+00  1.27903E-01
      21    -1     0     0   502   512  0.000000000E+00  0.000000000E+00  5.068094621E+01  5.068094621E+01  0.000000000E+00  0.00000E+00  9.000E+00
      21    -1     0     0   501   502  0.000000000E+00  0.000000000E+00 -1.333935284E+03  1.333935284E+03  0.000000000E+00  0.00000E+00  9.000E+00
      25     1     1     2     0     0 -1.731811896E+02  4.879794793E+01 -8.693962176E+02  8.965755670E+02  1.250000000E+02  0.00000E+00  9.000E+00
      25     1     1     2     0     0  9.301904563E+01 -3.289949257E+01 -3.493195971E+02  3.839063693E+02  1.250000000E+02  0.00000E+00  9.000E+00
      21     1     1     2   501   512  8.016214395E+01 -1.589845535E+01 -6.453852303E+01  1.041342939E+02  9.536743164E-07  0.00000E+00  9.000E+00
#rwgt            1           1   4.7780145736625410E-002           8      303276           0
</event>
<event>
      5   9999  3.79277E-02  9.32387E+00 -1.00000E+00  1.99339E-01
      21    -1     0     0   502   501  0.000000000E+00  0.000000000E+00  5.842372432E+02  5.842372432E+02  0.000000000E+00  0.00000E+00  9.000E+00
      21    -1     0     0   501   511  0.000000000E+00  0.000000000E+00 -8.045171869E+01  8.045171869E+01  0.000000000E+00  0.00000E+00  9.000E+00
      25     1     1     2     0     0 -1.257616179E+02  8.872279998E+00  7.803592048E+01  1.939311908E+02  1.250000000E+02  0.00000E+00  9.000E+00
      25     1     1     2     0     0  1.272788462E+02  3.273125664E-01  4.255517590E+02  4.614318058E+02  1.250000000E+02  0.00000E+00  9.000E+00
      21     1     1     2   502   511 -1.517228349E+00 -9.199592565E+00  1.978450245E-01  9.325965252E+00  1.153637660E-07  0.00000E+00  9.000E+00
#rwgt            1           1   3.1092628335575599E-002           8      303312           0
</event>
<event>
      5   9999  3.79277E-02  9.30995E+01 -1.00000E+00  1.25241E-01
      21    -1     0     0   512   501  0.000000000E+00  0.000000000E+00  1.783359187E+02  1.783359187E+02  0.000000000E+00  0.00000E+00  9.000E+00
      21    -1     0     0   501   502  0.000000000E+00  0.000000000E+00 -5.337434099E+02  5.337434099E+02  0.000000000E+00  0.00000E+00  9.000E+00
      25     1     1     2     0     0  6.455925255E+01  1.373242771E+02 -1.230126275E+02  2.319115364E+02  1.250000000E+02  0.00000E+00  9.000E+00
      25     1     1     2     0     0 -1.520852627E+02 -1.055954952E+02 -2.934703403E+02  3.688226896E+02  1.250000000E+02  0.00000E+00  9.000E+00
      21     1     1     2   512   502  8.752601010E+01 -3.172878190E+01  6.107547657E+01  1.113451026E+02  1.168007728E-06  0.00000E+00  9.000E+00
#rwgt            1           1   3.8583240588749693E-002           8      303640           0
</event>
<event>
      5   9999  3.79277E-02  6.32886E+01 -1.00000E+00  1.33477E-01
      21    -1     0     0   502   501  0.000000000E+00  0.000000000E+00  5.123740765E+01  5.123740765E+01  0.000000000E+00  0.00000E+00  9.000E+00
      21    -1     0     0   511   502  0.000000000E+00  0.000000000E+00 -9.530065799E+02  9.530065799E+02  0.000000000E+00  0.00000E+00  9.000E+00
      25     1     1     2     0     0 -3.475783029E+01  6.548158664E+00 -6.939834667E+01  1.472824350E+02  1.250000000E+02  0.00000E+00  9.000E+00
      25     1     1     2     0     0  7.540017039E+00  5.058888247E+01 -6.510918348E+02  6.649523774E+02  1.250000000E+02  0.00000E+00  9.000E+00
      21     1     1     2   511   501  2.721781325E+01 -5.713704113E+01 -1.812789908E+02  1.920091751E+02  2.697398305E-06  0.00000E+00  9.000E+00
#rwgt            1           1   4.2727289119337104E-002           8      303734           0
</event>
<event>
      5   9999  3.79277E-02  4.50064E+01 -1.00000E+00  1.41734E-01
      -3    -1     0     0     0   501  0.000000000E+00  0.000000000E+00  9.411174822E+01  9.411174822E+01  0.000000000E+00  0.00000E+00  9.000E+00
      21    -1     0     0   501   502  0.000000000E+00  0.000000000E+00 -6.486879048E+02  6.486879048E+02  0.000000000E+00  0.00000E+00  9.000E+00
      25     1     1     2     0     0 -5.008341095E+01 -3.289159996E+01 -5.547730786E+02  5.718289728E+02  1.250000000E+02  0.00000E+00  9.000E+00
      25     1     1     2     0     0  1.441807742E+01  5.440610991E+00 -9.432937079E-01  1.259498750E+02  1.250000000E+02  0.00000E+00  9.000E+00
      -3     1     1     2     0   502  3.566533353E+01  2.745098897E+01  1.140215731E+00  4.502080522E+01  1.794337418E-07  0.00000E+00  9.000E+00
#rwgt            1           1   4.7245821952446115E-002           8      303875           0
</event>
<event>
      5   9999  3.79277E-02  3.50453E+01 -1.00000E+00  1.48494E-01
      21    -1     0     0   511   501  0.000000000E+00  0.000000000E+00  9.987107999E+01  9.987107999E+01  0.000000000E+00  0.00000E+00  9.000E+00
      21    -1     0     0   501   502  0.000000000E+00  0.000000000E+00 -3.015596892E+02  3.015596892E+02  0.000000000E+00  0.00000E+00  9.000E+00
      25     1     1     2     0     0  4.878554646E+01 -2.171835716E+01 -1.373611330E+02  1.932480206E+02  1.250000000E+02  0.00000E+00  9.000E+00
      25     1     1     2     0     0 -3.474809310E+01  5.382946878E+01 -8.812674568E+01  1.658202792E+02  1.250000000E+02  0.00000E+00  9.000E+00
      21     1     1     2   511   502 -1.403745336E+01 -3.211111163E+01  2.379926953E+01  4.236246944E+01  5.840038640E-07  0.00000E+00  9.000E+00
#rwgt            1           1   2.7389124419782557E-002           8      304112           0
</event>
<event>
      5   9999  3.79277E-02  5.26810E+01 -1.00000E+00  1.37794E-01
      21    -1     0     0   512   501  0.000000000E+00  0.000000000E+00  7.773456392E+01  7.773456392E+01  0.000000000E+00  0.00000E+00  9.000E+00
      21    -1     0     0   501   502  0.000000000E+00  0.000000000E+00 -1.461339981E+03  1.461339981E+03  0.000000000E+00  0.00000E+00  9.000E+00
      25     1     1     2     0     0 -1.342566640E+02  2.111111423E+02 -5.940074909E+02  6.565536273E+02  1.250000000E+02  0.00000E+00  9.000E+00
      25     1     1     2     0     0  1.382536555E+02 -2.636402647E+02 -7.502278614E+02  8.167540061E+02  1.250000000E+02  0.00000E+00  9.000E+00
      21     1     1     2   512   502 -3.996991467E+00  5.252912238E+01 -3.937006452E+01  6.576691128E+01  1.348699152E-06  0.00000E+00  9.000E+00
#rwgt            1           1   3.4286724964142395E-002           8      304261           0
</event>
<event>
      5   9999  3.79277E-02  1.14405E+02 -1.00000E+00  1.21255E-01
       2    -1     0     0   502     0  0.000000000E+00  0.000000000E+00  1.671812505E+03  1.671812505E+03  0.000000000E+00  0.00000E+00  9.000E+00
      21    -1     0     0   501   502  0.000000000E+00  0.000000000E+00 -1.164206064E+02  1.164206064E+02  0.000000000E+00  0.00000E+00  9.000E+00
      25     1     1     2     0     0  5.401987588E+01  2.077498771E+01  3.797734359E+02  4.039834275E+02  1.250000000E+02  0.00000E+00  9.000E+00
      25     1     1     2     0     0  5.273023692E+01  2.036877294E+01 -5.538210146E+01  1.479443881E+02  1.250000000E+02  0.00000E+00  9.000E+00
       2     1     1     2   501     0 -1.067501128E+02 -4.114376065E+01  1.231000564E+03  1.236305296E+03  2.157918644E-05  0.00000E+00  9.000E+00
#rwgt            1           1   3.7777647307256877E-002           8      304453           0
</event>
<event>
      5   9999  3.79277E-02  1.10542E+02 -1.00000E+00  1.21901E-01
      21    -1     0     0   502   501  0.000000000E+00  0.000000000E+00  3.863977660E+02  3.863977660E+02  0.000000000E+00  0.00000E+00  9.000E+00
      21    -1     0     0   501   511  0.000000000E+00  0.000000000E+00 -1.766093041E+02  1.766093041E+02  0.000000000E+00  0.00000E+00  9.000E+00
      25     1     1     2     0     0 -5.132707519E+00  1.029109508E+02  8.946627946E+01  1.850573523E+02  1.250000000E+02  0.00000E+00  9.000E+00
      25     1     1     2     0     0  4.410315390E+01 -2.063557764E+02  1.032049209E+02  2.660903048E+02  1.250000000E+02  0.00000E+00  9.000E+00
      21     1     1     2   502   511 -3.897044638E+01  1.034448256E+02  1.711726142E+01  1.118594129E+02  1.192092896E-06  0.00000E+00  9.000E+00
#rwgt            1           1   3.8751752070372507E-002           8      304541           0
</event>
<event>
      5   9999  3.79277E-02  2.84901E+01 -1.00000E+00  1.54614E-01
      21    -1     0     0   502   501  0.000000000E+00  0.000000000E+00  8.629432778E+02  8.629432778E+02  0.000000000E+00  0.00000E+00  9.000E+00
       1    -1     0     0   501     0  0.000000000E+00  0.000000000E+00 -5.862143312E+02  5.862143312E+02  0.000000000E+00  0.00000E+00  9.000E+00
      25     1     1     2     0     0  2.481485253E+02  9.533299756E+00  5.140358761E+02  5.844026492E+02  1.250000000E+02  0.00000E+00  9.000E+00
      25     1     1     2     0     0 -2.204056694E+02 -1.601564088E+01  2.618843237E+02  3.647513658E+02  1.250000000E+02  0.00000E+00  9.000E+00
       1     1     1     2   502     0 -2.774285592E+01  6.482341126E+00 -4.991912532E+02  5.000035941E+02  5.394796609E-06  0.00000E+00  9.000E+00
#rwgt            1           1   3.9584606965105427E-002           8      304653           0
</event>
<event>
      5   9999  3.79277E-02  1.16121E+02 -1.00000E+00  1.20977E-01
      21    -1     0     0   502   501  0.000000000E+00  0.000000000E+00  2.992977365E+02  2.992977365E+02  0.000000000E+00  0.00000E+00  9.000E+00
      21    -1     0     0   501   511  0.000000000E+00  0.000000000E+00 -3.415125670E+02  3.415125670E+02  0.000000000E+00  0.00000E+00  9.000E+00
      25     1     1     2     0     0  1.016339553E+02  1.703422322E+02  4.785724901E+01  2.392932369E+02  1.250000000E+02  0.00000E+00  9.000E+00
      25     1     1     2     0     0 -1.087555466E+01 -2.427781428E+02 -4.504586960E+01  2.769722634E+02  1.250000000E+02  0.00000E+00  9.000E+00
      21     1     1     2   502   511 -9.075840067E+01  7.243591060E+01 -4.502620994E+01  1.245448033E+02  1.066240300E-06  0.00000E+00  9.000E+00
#rwgt            1           1   3.0359086530115240E-002           8      304861           0
</event>
<event>
      5   9999  3.79277E-02  4.55362E+01 -1.00000E+00  1.41433E-01
      21    -1     0     0   502   512  0.000000000E+00  0.000000000E+00  6.352257555E+01  6.352257555E+01  0.000000000E+00  0.00000E+00  9.000E+00
      21    -1     0     0   501   502  0.000000000E+00  0.000000000E+00 -9.684769162E+02  9.684769162E+02  0.000000000E+00  0.00000E+00  9.000E+00
      25     1     1     2     0     0  1.764581713E+01  3.687738308E+01 -8.145281167E+02  8.250771898E+02  1.250000000E+02  0.00000E+00  9.000E+00
      25     1     1     2     0     0  2.195470508E+01 -5.935724673E+01 -6.177495295E+01  1.531222930E+02  1.250000000E+02  0.00000E+00  9.000E+00
      21     1     1     2   501   512 -3.960052220E+01  2.247986366E+01 -2.865127102E+01  5.380000892E+01  4.768371582E-07  0.00000E+00  9.000E+00
#rwgt            1           1   3.3247319095732066E-002           8      304934           0
</event>
<event>
      5   9999  3.79277E-02  6.34525E+00 -1.00000E+00  2.21763E-01
      21    -1     0     0   511   501  0.000000000E+00  0.000000000E+00  7.279637021E+01  7.279637021E+01  0.000000000E+00  0.00000E+00  9.000E+00
      21    -1     0     0   501   502  0.000000000E+00  0.000000000E+00 -4.633366330E+02  4.633366330E+02  0.000000000E+00  0.00000E+00  9.000E+00
      25     1     1     2     0     0 -1.239601249E+02  2.538418434E+01 -1.933057163E+02  2.626834013E+02  1.250000000E+02  0.00000E+00  9.000E+00
      25     1     1     2     0     0  1.302108430E+02 -2.647540944E+01 -1.940908051E+02  2.663682631E+02  1.250000000E+02  0.00000E+00  9.000E+00
      21     1     1     2   511   502 -6.250718128E+00  1.091225101E+00 -3.143741373E+00  7.081338797E+00  8.429369702E-08  0.00000E+00  9.000E+00
#rwgt            1           1   3.6700653617444616E-002           8      305084           0
</event>
<event>
      5   9999  3.79277E-02  9.78169E+01 -1.00000E+00  1.24261E-01
      21    -1     0     0   502   501  0.000000000E+00  0.000000000E+00  1.095407589E+02  1.095407589E+02  0.000000000E+00  0.00000E+00  9.000E+00
      21    -1     0     0   501   512  0.000000000E+00  0.000000000E+00 -6.102870501E+02  6.102870501E+02  0.000000000E+00  0.00000E+00  9.000E+00
      25     1     1     2     0     0  5.558876595E+01  1.870158893E+01  1.941957577E+01  1.394345017E+02  1.250000000E+02  0.00000E+00  9.000E+00
      25     1     1     2     0     0 -5.982445155E+01  7.902358037E+01 -3.140428329E+02  3.522379766E+02  1.250000000E+02  0.00000E+00  9.000E+00
      21     1     1     2   502   512  4.235685598E+00 -9.772516929E+01 -2.061230340E+02  2.281553307E+02  3.814697266E-06  0.00000E+00  9.000E+00
#rwgt            1           1   4.1189774630270924E-002           8      305468           0
</event>
<event>
      5   9999  3.79277E-02  7.98568E+01 -1.00000E+00  1.28387E-01
      21    -1     0     0   511   501  0.000000000E+00  0.000000000E+00  2.883481041E+02  2.883481041E+02  0.000000000E+00  0.00000E+00  9.000E+00
      21    -1     0     0   501   502  0.000000000E+00  0.000000000E+00 -2.949641273E+02  2.949641273E+02  0.000000000E+00  0.00000E+00  9.000E+00
      25     1     1     2     0     0  4.477457966E+01 -1.726625810E+02 -2.030561080E+01  2.187565946E+02  1.250000000E+02  0.00000E+00  9.000E+00
      25     1     1     2     0     0 -9.196760484E+01  1.082426725E+02 -1.088560849E+02  2.182868839E+02  1.250000000E+02  0.00000E+00  9.000E+00
      21     1     1     2   511   502  4.719302518E+01  6.441990850E+01  1.225456725E+02  1.462687529E+02  2.336015456E-06  0.00000E+00  9.000E+00
#rwgt            1           1   3.0384284708459504E-002           8      305515           0
</event>
<event>
      5   9999  3.79277E-02  8.78924E+01 -1.00000E+00  1.26402E-01
      21    -1     0     0   502   512  0.000000000E+00  0.000000000E+00  9.017398370E+01  9.017398370E+01  0.000000000E+00  0.00000E+00  9.000E+00
      21    -1     0     0   501   502  0.000000000E+00  0.000000000E+00 -2.416607091E+03  2.416607091E+03  0.000000000E+00  0.00000E+00  9.000E+00
      25     1     1     2     0     0  1.673087762E+02 -2.466230330E+01 -6.665309338E+02  6.989198391E+02  1.250000000E+02  0.00000E+00  9.000E+00
      25     1     1     2     0     0 -2.422549678E+02  7.057684930E+01 -1.691260433E+03  1.714542333E+03  1.250000000E+02  0.00000E+00  9.000E+00
      21     1     1     2   501   512  7.494619164E+01 -4.591454600E+01  3.135825899E+01  9.331890260E+01  7.539457465E-07  0.00000E+00  9.000E+00
#rwgt            1           1   9.0633061253445543E-002           8      305618           0
</event>
<event>
      5   9999  3.79277E-02  1.72661E+02 -1.00000E+00  1.14022E-01
       2    -1     0     0   502     0  0.000000000E+00  0.000000000E+00  5.998161956E+02  5.998161956E+02  0.000000000E+00  0.00000E+00  9.000E+00
      21    -1     0     0   501   502  0.000000000E+00  0.000000000E+00 -3.470187621E+02  3.470187621E+02  0.000000000E+00  0.00000E+00  9.000E+00
      25     1     1     2     0     0  3.892200191E+01 -2.679128857E+02 -9.990573419E+00  2.983572491E+02  1.250000000E+02  0.00000E+00  9.000E+00
      25     1     1     2     0     0 -3.745314444E+01  9.525808225E+01 -1.377477534E+02  2.123117609E+02  1.250000000E+02  0.00000E+00  9.000E+00
       2     1     1     2   501     0 -1.468857469E+00  1.726548034E+02  4.005357603E+02  4.361659478E+02  5.394796609E-06  0.00000E+00  9.000E+00
#rwgt            1           1   2.0380375627484796E-002           8      305778           0
</event>
<event>
      5   9999  3.79277E-02  8.40057E+01 -1.00000E+00  1.27331E-01
      21    -1     0     0   502   511  0.000000000E+00  0.000000000E+00  4.676607322E+02  4.676607322E+02  0.000000000E+00  0.00000E+00  9.000E+00
      21    -1     0     0   501   502  0.000000000E+00  0.000000000E+00 -1.236381672E+03  1.236381672E+03  0.000000000E+00  0.00000E+00  9.000E+00
      25     1     1     2     0     0 -4.147894501E+01  1.111245206E+02 -3.233686169E+02  3.664170088E+02  1.250000000E+02  0.00000E+00  9.000E+00
      25     1     1     2     0     0  1.149632075E+02 -7.041798512E+01 -8.779263869E+02  8.969698839E+02  1.250000000E+02  0.00000E+00  9.000E+00
      21     1     1     2   501   511 -7.348426250E+01 -4.070653553E+01  4.325740641E+02  4.406555115E+02  9.344061824E-06  0.00000E+00  9.000E+00
#rwgt            1           1   3.0204107012640580E-002           8      305935           0
</event>
<event>
      5   9999  3.79277E-02  4.06015E+01 -1.00000E+00  1.44439E-01
      21    -1     0     0   502   501  0.000000000E+00  0.000000000E+00  9.657644292E+01  9.657644292E+01  0.000000000E+00  0.00000E+00  9.000E+00
      21    -1     0     0   512   502  0.000000000E+00  0.000000000E+00 -4.873368961E+02  4.873368961E+02  0.000000000E+00  0.00000E+00  9.000E+00
      25     1     1     2     0     0  6.313542445E+01 -6.027855509E+01 -2.040054898E+02  2.546818130E+02  1.250000000E+02  0.00000E+00  9.000E+00
      25     1     1     2     0     0 -8.810081136E+01  9.229751605E+01 -4.842923875E+01  1.850701910E+02  1.250000000E+02  0.00000E+00  9.000E+00
      21     1     1     2   512   501  2.496538691E+01 -3.201896096E+01 -1.383257246E+02  1.441613349E+02  0.000000000E+00  0.00000E+00  9.000E+00
#rwgt            1           1   1.1736795421478921E-002           8      306056           0
</event>
<event>
      5   9999  3.79277E-02  6.60372E+01 -1.00000E+00  1.32515E-01
       2    -1     0     0   502     0  0.000000000E+00  0.000000000E+00  1.160570142E+03  1.160570142E+03  0.000000000E+00  0.00000E+00  9.000E+00
      21    -1     0     0   501   502  0.000000000E+00  0.000000000E+00 -1.352855420E+02  1.352855420E+02  0.000000000E+00  0.00000E+00  9.000E+00
      25     1     1     2     0     0 -4.477503528E+00  1.604621438E+02 -3.295786524E+01  2.061052365E+02  1.250000000E+02  0.00000E+00  9.000E+00
      25     1     1     2     0     0 -2.850726605E+01 -1.032527036E+02  4.736724290E+02  5.014622169E+02  1.250000000E+02  0.00000E+00  9.000E+00
       2     1     1     2   501     0  3.298476958E+01 -5.720944020E+01  5.845700363E+02  5.882882307E+02  7.629394531E-06  0.00000E+00  9.000E+00
#rwgt            1           1   3.8514770868821831E-002           8      306133           0
</event>
<event>
      5   9999  3.79277E-02  5.61523E+01 -1.00000E+00  1.36260E-01
      21    -1     0     0   502   501  0.000000000E+00  0.000000000E+00  1.606932410E+02  1.606932410E+02  0.000000000E+00  0.00000E+00  9.000E+00
      -2    -1     0     0     0   502  0.000000000E+00  0.000000000E+00 -1.147288985E+03  1.147288985E+03  0.000000000E+00  0.00000E+00  9.000E+00
      25     1     1     2     0     0  4.426265679E+01 -5.014820449E+00 -3.258386145E+02  3.518240098E+02  1.250000000E+02  0.00000E+00  9.000E+00
      25     1     1     2     0     0 -4.008391425E+01 -5.098178629E+01  1.128841228E+02  1.804818215E+02  1.250000000E+02  0.00000E+00  9.000E+00
      -2     1     1     2     0   501 -4.178742535E+00  5.599660674E+01 -7.736412522E+02  7.756763945E+02  1.078959322E-05  0.00000E+00  9.000E+00
#rwgt            1           1   4.9169251467192907E-002           8      306290           0
</event>
<event>
      5   9999  3.79277E-02  3.23922E+01 -1.00000E+00  1.50761E-01
      21    -1     0     0   511   501  0.000000000E+00  0.000000000E+00  4.411878663E+02  4.411878663E+02  0.000000000E+00  0.00000E+00  9.000E+00
      21    -1     0     0   501   502  0.000000000E+00  0.000000000E+00 -4.829491892E+02  4.829491892E+02  0.000000000E+00  0.00000E+00  9.000E+00
      25     1     1     2     0     0 -8.333473438E+01 -3.296261343E+01 -6.844780776E+01  1.683487874E+02  1.250000000E+02  0.00000E+00  9.000E+00
      25     1     1     2     0     0  6.480568275E+01  5.953195765E+01 -3.477951633E+02  3.799082864E+02  1.250000000E+02  0.00000E+00  9.000E+00
      21     1     1     2   511   502  1.852905162E+01 -2.656934422E+01  3.744816481E+02  3.758799816E+02  5.394796609E-06  0.00000E+00  9.000E+00
#rwgt            1           1   5.2118328567886903E-002           8      306456           0
</event>
<event>
      5   9999  3.79277E-02  1.78104E+01 -1.00000E+00  1.70634E-01
      21    -1     0     0   512   501  0.000000000E+00  0.000000000E+00  3.290213378E+02  3.290213378E+02  0.000000000E+00  0.00000E+00  9.000E+00
      21    -1     0     0   501   502  0.000000000E+00  0.000000000E+00 -2.237706719E+02  2.237706719E+02  0.000000000E+00  0.00000E+00  9.000E+00
      25     1     1     2     0     0  1.642417590E+02 -9.040764943E+01  1.604770407E+02  2.766347395E+02  1.250000000E+02  0.00000E+00  9.000E+00
      25     1     1     2     0     0 -1.671981243E+02  1.079709403E+02 -7.764862427E+01  2.475222123E+02  1.250000000E+02  0.00000E+00  9.000E+00
      21     1     1     2   512   502  2.956365333E+00 -1.756329083E+01  2.242224935E+01  2.863505800E+01  0.000000000E+00  0.00000E+00  9.000E+00
#rwgt            1           1   6.7624857250996153E-003           8      306615           0
</event>
<event>
      5   9999  3.79277E-02  1.92931E+02 -1.00000E+00  1.12220E-01
      21    -1     0     0   502   501  0.000000000E+00  0.000000000E+00  1.884411550E+02  1.884411550E+02  0.000000000E+00  0.00000E+00  9.000E+00
      21    -1     0     0   511   502  0.000000000E+00  0.000000000E+00 -5.094493784E+02  5.094493784E+02  0.000000000E+00  0.00000E+00  9.000E+00
      25     1     1     2     0     0 -7.713616792E+01  1.790700401E+02 -2.654345259E+00  2.316206235E+02  1.250000000E+02  0.00000E+00  9.000E+00
      25     1     1     2     0     0 -5.038057892E+01 -3.428738867E+01 -1.862764277E+02  2.324601800E+02  1.250000000E+02  0.00000E+00  9.000E+00
      21     1     1     2   511   501  1.275167468E+02 -1.447826514E+02 -1.320774505E+02  2.338097299E+02  3.814697266E-06  0.00000E+00  9.000E+00
#rwgt            1           1   4.0136734300453530E-002           8      306839           0
</event>
<event>
      5   9999  3.79277E-02  1.87132E+02 -1.00000E+00  1.12710E-01
      21    -1     0     0   502   512  0.000000000E+00  0.000000000E+00  1.246179051E+03  1.246179051E+03  0.000000000E+00  0.00000E+00  9.000E+00
      21    -1     0     0   501   502  0.000000000E+00  0.000000000E+00 -8.816413628E+01  8.816413628E+01  0.000000000E+00  0.00000E+00  9.000E+00
      25     1     1     2     0     0 -9.359288455E+01  2.628241411E+02  4.476750862E+02  5.421015956E+02  1.250000000E+02  0.00000E+00  9.000E+00
      25     1     1     2     0     0  7.234896848E+01 -7.690221500E+01  3.248610115E+02  3.637416676E+02  1.250000000E+02  0.00000E+00  9.000E+00
      21     1     1     2   501   512  2.124391606E+01 -1.859219261E+02  3.854788170E+02  4.284999241E+02  5.394796609E-06  0.00000E+00  9.000E+00
#rwgt            2          11   1.7738375180577234E-003           8      306942           0
</event>
<event>
      5   9999  3.79277E-02  2.86684E+02 -1.00000E+00  1.06237E-01
      21    -1     0     0   502   501  0.000000000E+00  0.000000000E+00  1.206230765E+02  1.206230765E+02  0.000000000E+00  0.00000E+00  9.000E+00
      21    -1     0     0   511   502  0.000000000E+00  0.000000000E+00 -2.648585569E+03  2.648585569E+03  0.000000000E+00  0.00000E+00  9.000E+00
      25     1     1     2     0     0 -2.290104604E+02 -2.594507478E-01 -2.285631892E+02  3.468601876E+02  1.250000000E+02  0.00000E+00  9.000E+00
      25     1     1     2     0     0  3.843800963E+02  2.411908899E+02 -1.554048588E+03  1.623765106E+03  1.250000000E+02  0.00000E+00  9.000E+00
      21     1     1     2   511   501 -1.553696359E+02 -2.409314392E+02 -7.453507150E+02  7.985833522E+02  1.525878906E-05  0.00000E+00  9.000E+00
#rwgt            2          11   1.1731052885077034E-003           8      307172           0
</event>
<event>
      5   9999  3.79277E-02  1.61799E+02 -1.00000E+00  1.15105E-01
      21    -1     0     0   502   501  0.000000000E+00  0.000000000E+00  2.667019881E+02  2.667019881E+02  0.000000000E+00  0.00000E+00  9.000E+00
      21    -1     0     0   512   502  0.000000000E+00  0.000000000E+00 -1.008864177E+03  1.008864177E+03  0.000000000E+00  0.00000E+00  9.000E+00
      25     1     1     2     0     0 -1.535958677E+02 -4.779799613E+01  1.054001533E+02  2.293698571E+02  1.250000000E+02  0.00000E+00  9.000E+00
      25     1     1     2     0     0  2.958057726E+02 -2.937158480E+01 -2.016578416E+02  3.803348922E+02  1.250000000E+02  0.00000E+00  9.000E+00
      21     1     1     2   512   501 -1.422099049E+02  7.716958093E+01 -6.459045010E+02  6.658614163E+02  7.629394531E-06  0.00000E+00  9.000E+00
#rwgt            2          11   1.1816624019931861E-003           8      307207           0
</event>
<event>
      5   9999  3.79277E-02  2.37428E+01 -1.00000E+00  1.60448E-01
      21    -1     0     0   502   501  0.000000000E+00  0.000000000E+00  1.344952861E+02  1.344952861E+02  0.000000000E+00  0.00000E+00  9.000E+00
      21    -1     0     0   501   511  0.000000000E+00  0.000000000E+00 -5.340671015E+02  5.340671015E+02  0.000000000E+00  0.00000E+00  9.000E+00
      25     1     1     2     0     0 -6.295981081E+00  1.576620075E+02 -1.643266858E+02  2.598561287E+02  1.250000000E+02  0.00000E+00  9.000E+00
      25     1     1     2     0     0 -6.917192806E+00 -1.379356004E+02 -1.466637388E+01  1.868533648E+02  1.250000000E+02  0.00000E+00  9.000E+00
      21     1     1     2   502   511  1.321317389E+01 -1.972640706E+01 -2.205787558E+02  2.218528941E+02  2.697398305E-06  0.00000E+00  9.000E+00
#rwgt            1           1   3.0058600901156501E-002           8      307302           0
</event>
<event>
      5   9999  3.79277E-02  1.22644E+02 -1.00000E+00  1.19968E-01
      21    -1     0     0   502   501  0.000000000E+00  0.000000000E+00  7.044700222E+02  7.044700222E+02  0.000000000E+00  0.00000E+00  9.000E+00
      21    -1     0     0   512   502  0.000000000E+00  0.000000000E+00 -1.170579814E+02  1.170579814E+02  0.000000000E+00  0.00000E+00  9.000E+00
      25     1     1     2     0     0  1.915765741E+02  1.576913842E+01  2.746075505E+02  3.577492924E+02  1.250000000E+02  0.00000E+00  9.000E+00
      25     1     1     2     0     0 -1.470933154E+02  9.852388739E+01  2.286506779E+02  3.150389378E+02  1.250000000E+02  0.00000E+00  9.000E+00
      21     1     1     2   512   501 -4.448325868E+01 -1.142930258E+02  8.415381246E+01  1.487397734E+02  2.861022949E-06  0.00000E+00  9.000E+00
#rwgt            1           1   3.9678715716101896E-002           8      307501           0
</event>
<event>
      5   9999  3.79277E-02  7.67888E+01 -1.00000E+00  1.29217E-01
      21    -1     0     0   502   501  0.000000000E+00  0.000000000E+00  1.245097457E+03  1.245097457E+03  0.000000000E+00  0.00000E+00  9.000E+00
      21    -1     0     0   501   511  0.000000000E+00  0.000000000E+00 -1.680791033E+02  1.680791033E+02  0.000000000E+00  0.00000E+00  9.000E+00
      25     1     1     2     0     0 -2.170047119E+02 -2.924985449E+02  8.769635022E+02  9.577768154E+02  1.250000000E+02  0.00000E+00  9.000E+00
      25     1     1     2     0     0  2.163729852E+02  2.157123518E+02  1.801665594E+02  3.760772216E+02  1.250000000E+02  0.00000E+00  9.000E+00
      21     1     1     2   502   511  6.317267006E-01  7.678619306E+01  1.988829181E+01  7.932252312E+01  7.907449699E-07  0.00000E+00  9.000E+00
#rwgt            1           1   5.5371346604550953E-002           8      307592           0
</event>
<event>
      5   9999  3.79277E-02  1.25691E+02 -1.00000E+00  1.19520E-01
      21    -1     0     0   512   501  0.000000000E+00  0.000000000E+00  1.667251850E+02  1.667251850E+02  0.000000000E+00  0.00000E+00  9.000E+00
      21    -1     0     0   501   502  0.000000000E+00  0.000000000E+00 -5.472186053E+02  5.472186053E+02  0.000000000E+00  0.00000E+00  9.000E+00
      25     1     1     2     0     0 -7.301065084E+01 -5.734609322E+01 -7.098683626E+00  1.558669973E+02  1.250000000E+02  0.00000E+00  9.000E+00
      25     1     1     2     0     0  1.198660057E+02  1.739775866E+02 -3.541661060E+02  4.309230680E+02  1.250000000E+02  0.00000E+00  9.000E+00
      21     1     1     2   512   502 -4.685535484E+01 -1.166314934E+02 -1.922863066E+01  1.271537250E+02  1.168007728E-06  0.00000E+00  9.000E+00
#rwgt            1           1   2.6665122358980309E-003           8      307686           0
</event>
<event>
      5   9999  3.79277E-02  3.82882E+01 -1.00000E+00  1.46028E-01
      21    -1     0     0   511   501  0.000000000E+00  0.000000000E+00  3.452921204E+02  3.452921204E+02  0.000000000E+00  0.00000E+00  9.000E+00
      21    -1     0     0   501   502  0.000000000E+00  0.000000000E+00 -1.575307720E+03  1.575307720E+03  0.000000000E+00  0.00000E+00  9.000E+00
      25     1     1     2     0     0  4.086200790E+02 -2.750144827E+02 -3.474339911E+02  6.155799809E+02  1.250000000E+02  0.00000E+00  9.000E+00
      25     1     1     2     0     0 -4.467699767E+02  2.717626355E+02 -1.025046872E+03  1.157499215E+03  1.250000000E+02  0.00000E+00  9.000E+00
      21     1     1     2   511   502  3.814989765E+01  3.251847206E+00  1.424652638E+02  1.475206446E+02  0.000000000E+00  0.00000E+00  9.000E+00
#rwgt            1           1   5.1831905544615031E-002           8      307952           0
</event>
<event>
      5   9999  3.79277E-02  5.58166E+01 -1.00000E+00  1.36402E-01
      21    -1     0     0   512   501  0.000000000E+00  0.000000000E+00  4.820761426E+02  4.820761426E+02  0.000000000E+00  0.00000E+00  9.000E+00
      21    -1     0     0   501   502  0.000000000E+00  0.000000000E+00 -1.313169740E+02  1.313169740E+02  0.000000000E+00  0.00000E+00  9.000E+00
      25     1     1     2     0     0 -9.729856659E+01  1.109058785E+02  7.970477646E+01  2.091529974E+02  1.250000000E+02  0.00000E+00  9.000E+00
      25     1     1     2     0     0  1.398068622E+02 -7.473221430E+01  1.019516590E+02  2.261636650E+02  1.250000000E+02  0.00000E+00  9.000E+00
      21     1     1     2   512   502 -4.250829562E+01 -3.617366416E+01  1.691027331E+02  1.780764541E+02  1.907348633E-06  0.00000E+00  9.000E+00
#rwgt            1           1   2.7347639603427648E-002           8      308181           0
</event>
<event>
      5   9999  3.79277E-02  4.11377E+01 -1.00000E+00  1.44089E-01
      21    -1     0     0   511   501  0.000000000E+00  0.000000000E+00  7.550058100E+02  7.550058100E+02  0.000000000E+00  0.00000E+00  9.000E+00
      21    -1     0     0   501   502  0.000000000E+00  0.000000000E+00 -7.207279693E+01  7.207279693E+01  0.000000000E+00  0.00000E+00  9.000E+00
      25     1     1     2     0     0  5.160041613E+01  1.311210612E+02  3.836909695E+02  4.274331476E+02  1.250000000E+02  0.00000E+00  9.000E+00
      25     1     1     2     0     0 -6.438159776E+01 -1.702228902E+02  2.280029611E+02  3.173817461E+02  1.250000000E+02  0.00000E+00  9.000E+00
      21     1     1     2   511   502  1.278118163E+01  3.910182905E+01  7.123908243E+01  8.226371316E+01  0.000000000E+00  0.00000E+00  9.000E+00
#rwgt            1           1   3.9309000471473163E-002           8      308334           0
</event>
<event>
      5   9999 -3.79277E-02  5.77848E+01 -1.00000E+00  1.35582E-01
      21    -1     0     0   502   501  0.000000000E+00  0.000000000E+00  4.090276917E+02  4.090276917E+02  0.000000000E+00  0.00000E+00  9.000E+00
      21    -1     0     0   512   502  0.000000000E+00  0.000000000E+00 -7.366914616E+02  7.366914616E+02  0.000000000E+00  0.00000E+00  9.000E+00
      25     1     1     2     0     0  1.931121950E+02 -2.627272863E+02  2.243064185E+02  4.150377287E+02  1.250000000E+02  0.00000E+00  9.000E+00
      25     1     1     2     0     0 -1.454054953E+02  2.953332451E+02 -2.723588174E+02  4.451615540E+02  1.250000000E+02  0.00000E+00  9.000E+00
      21     1     1     2   512   501 -4.770669967E+01 -3.260595878E+01 -2.796113711E+02  2.855198707E+02  5.394796609E-06  0.00000E+00  9.000E+00
#rwgt            1           1  -4.4696276314514831E-002           8      308441           0
</event>
<event>
      5   9999  3.79277E-02  1.15551E+02 -1.00000E+00  1.21069E-01
      21    -1     0     0   511   501  0.000000000E+00  0.000000000E+00  2.261443011E+02  2.261443011E+02  0.000000000E+00  0.00000E+00  9.000E+00
      21    -1     0     0   501   502  0.000000000E+00  0.000000000E+00 -1.181681162E+03  1.181681162E+03  0.000000000E+00  0.00000E+00  9.000E+00
      25     1     1     2     0     0  8.955774655E+01  3.639305848E+02 -6.323564047E+01  4.001122427E+02  1.250000000E+02  0.00000E+00  9.000E+00
      25     1     1     2     0     0 -8.460280131E+01 -2.484862782E+02 -8.233026997E+02  8.731296581E+02  1.250000000E+02  0.00000E+00  9.000E+00
      21     1     1     2   511   502 -4.954945240E+00 -1.154443066E+02 -6.899852094E+01  1.345835625E+02  2.132480600E-06  0.00000E+00  9.000E+00
#rwgt            1           1  0.15720809748507375                8      308621           0
</event>
<event>
      5   9999  3.79277E-02  8.34594E+01 -1.00000E+00  1.27466E-01
      21    -1     0     0   502   501  0.000000000E+00  0.000000000E+00  2.827797511E+02  2.827797511E+02  0.000000000E+00  0.00000E+00  9.000E+00
      21    -1     0     0   501   512  0.000000000E+00  0.000000000E+00 -2.985958147E+02  2.985958147E+02  0.000000000E+00  0.00000E+00  9.000E+00
      25     1     1     2     0     0  2.968493181E+01 -1.664656215E+02  3.221165030E+01  2.127312594E+02  1.250000000E+02  0.00000E+00  9.000E+00
      25     1     1     2     0     0 -5.484028637E+01  2.460438026E+02 -2.760580882E+01  2.827226388E+02  1.250000000E+02  0.00000E+00  9.000E+00
      21     1     1     2   502   512  2.515535456E+01 -7.957818101E+01 -2.042190515E+01  8.592166762E+01  8.259061849E-07  0.00000E+00  9.000E+00
#rwgt            1           1   3.3019522878137829E-002           8      308716           0
</event>
<event>
      5   9999  3.79277E-02  1.76111E+01 -1.00000E+00  1.71060E-01
      21    -1     0     0   511   501  0.000000000E+00  0.000000000E+00  7.090518648E+01  7.090518648E+01  0.000000000E+00  0.00000E+00  9.000E+00
      21    -1     0     0   501   502  0.000000000E+00  0.000000000E+00 -9.329748526E+02  9.329748526E+02  0.000000000E+00  0.00000E+00  9.000E+00
      25     1     1     2     0     0 -1.323230748E+02  1.485711409E+02 -4.981549896E+02  5.507868677E+02  1.250000000E+02  0.00000E+00  9.000E+00
      25     1     1     2     0     0  1.442017381E+02 -1.615729937E+02 -3.522169070E+02  4.319510657E+02  1.250000000E+02  0.00000E+00  9.000E+00
      21     1     1     2   511   502 -1.187866337E+01  1.300185280E+01 -1.169776952E+01  2.114210565E+01  3.371747881E-07  0.00000E+00  9.000E+00
#rwgt            1           1   3.7314915519366686E-002           8      308872           0
</event>
<event>
      5   9999  3.79277E-02  8.65298E+00 -1.00000E+00  2.03313E-01
       2    -1     0     0   502     0  0.000000000E+00  0.000000000E+00  8.947707050E+01  8.947707050E+01  0.000000000E+00  0.00000E+00  9.000E+00
      21    -1     0     0   501   502  0.000000000E+00  0.000000000E+00 -6.842966602E+02  6.842966602E+02  0.000000000E+00  0.00000E+00  9.000E+00
      25     1     1     2     0     0 -6.917402614E+01 -1.784974908E+00 -1.009106770E+02  1.749176857E+02  1.250000000E+02  0.00000E+00  9.000E+00
      25     1     1     2     0     0  7.769784635E+01  2.954693819E-01 -5.360230413E+02  5.558621622E+02  1.250000000E+02  0.00000E+00  9.000E+00
       2     1     1     2   501     0 -8.523820214E+00  1.489505526E+00  4.211412853E+01  4.299388282E+01  8.259061849E-07  0.00000E+00  9.000E+00
#rwgt            1           1   5.4029833099378248E-002           8      309153           0
</event>
<event>
      5   9999 -3.79277E-02  3.79745E+01 -1.00000E+00  1.46254E-01
      21    -1     0     0   502   501  0.000000000E+00  0.000000000E+00  1.857669440E+02  1.857669440E+02  0.000000000E+00  0.00000E+00  9.000E+00
      21    -1     0     0   511   502  0.000000000E+00  0.000000000E+00 -5.282487573E+02  5.282487573E+02  0.000000000E+00  0.00000E+00  9.000E+00
      25     1     1     2     0     0 -2.045608144E+02 -1.247622850E+02 -8.200715236E+01  2.824197719E+02  1.250000000E+02  0.00000E+00  9.000E+00
      25     1     1     2     0     0  1.930017398E+02  1.609348022E+02 -1.574945373E+02  3.218372436E+02  1.250000000E+02  0.00000E+00  9.000E+00
      21     1     1     2   511   501  1.155907460E+01 -3.617251726E+01 -1.029801238E+02  1.097586858E+02  1.907348633E-06  0.00000E+00  9.000E+00
#rwgt            1           1  -5.6793016206067949E-002           8      309514           0
</event>
<event>
      5   9999  3.79277E-02  6.85911E+01 -1.00000E+00  1.31669E-01
      21    -1     0     0   502   501  0.000000000E+00  0.000000000E+00  5.233911143E+01  5.233911143E+01  0.000000000E+00  0.00000E+00  9.000E+00
      21    -1     0     0   512   502  0.000000000E+00  0.000000000E+00 -1.098808853E+03  1.098808853E+03  0.000000000E+00  0.00000E+00  9.000E+00
      25     1     1     2     0     0  1.045101700E+02  8.171793420E+01 -2.892275468E+02  3.418739098E+02  1.250000000E+02  0.00000E+00  9.000E+00
      25     1     1     2     0     0 -8.143835469E+01 -1.712357536E+01 -2.123549781E+02  2.600866378E+02  1.250000000E+02  0.00000E+00  9.000E+00
      21     1     1     2   512   501 -2.307181527E+01 -6.459435884E+01 -5.448872166E+02  5.491874167E+02  0.000000000E+00  0.00000E+00  9.000E+00
#rwgt            1           1   4.3692931813127084E-002           8      309757           0
</event>
<event>
      5   9999  3.79277E-02  2.10033E+01 -1.00000E+00  1.64634E-01
      21    -1     0     0   502   511  0.000000000E+00  0.000000000E+00  1.255821107E+03  1.255821107E+03  0.000000000E+00  0.00000E+00  9.000E+00
      21    -1     0     0   501   502  0.000000000E+00  0.000000000E+00 -1.053314868E+03  1.053314868E+03  0.000000000E+00  0.00000E+00  9.000E+00
      25     1     1     2     0     0  9.283922931E+01 -5.989962351E+01 -1.660220108E+02  2.353622643E+02  1.250000000E+02  0.00000E+00  9.000E+00
      25     1     1     2     0     0 -9.755584809E+01  3.943277563E+01 -8.447030706E+02  8.603606016E+02  1.250000000E+02  0.00000E+00  9.000E+00
      21     1     1     2   501   511  4.716618783E+00  2.046684788E+01  1.213231320E+03  1.213413109E+03  2.157918644E-05  0.00000E+00  9.000E+00
#rwgt            1           1   3.8983273858791780E-002           8      309903           0
</event>
<event>
      5   9999  3.79277E-02  1.89327E+01 -1.00000E+00  1.68359E-01
      21    -1     0     0   502   501  0.000000000E+00  0.000000000E+00  3.759655706E+02  3.759655706E+02  0.000000000E+00  0.00000E+00  9.000E+00
      21    -1     0     0   512   502  0.000000000E+00  0.000000000E+00 -8.741095474E+01  8.741095474E+01  0.000000000E+00  0.00000E+00  9.000E+00
      25     1     1     2     0     0  3.409473507E+01 -8.450875942E+01  1.483147439E+02  2.143045604E+02  1.250000000E+02  0.00000E+00  9.000E+00
      25     1     1     2     0     0 -4.757589483E+01  7.121574497E+01  1.609211485E+02  2.210334005E+02  1.250000000E+02  0.00000E+00  9.000E+00
      21     1     1     2   512   501  1.348115976E+01  1.329301444E+01 -2.068127645E+01  2.803856446E+01  6.743495762E-07  0.00000E+00  9.000E+00
#rwgt            1           1   3.4308514797118085E-002           8      310062           0
</event>
<event>
      5   9999  3.79277E-02  7.26167E+01 -1.00000E+00  1.30419E-01
      21    -1     0     0   502   511  0.000000000E+00  0.000000000E+00  1.957957869E+02  1.957957869E+02  0.000000000E+00  0.00000E+00  9.000E+00
      21    -1     0     0   501   502  0.000000000E+00  0.000000000E+00 -8.358506294E+02  8.358506294E+02  0.000000000E+00  0.00000E+00  9.000E+00
      25     1     1     2     0     0 -6.974012525E+01 -1.494694499E+02 -5.886966379E+02  6.240140488E+02  1.250000000E+02  0.00000E+00  9.000E+00
      25     1     1     2     0     0 -5.816992432E-01  1.313579933E+02 -1.827905822E+02  2.574736058E+02  1.250000000E+02  0.00000E+00  9.000E+00
      21     1     1     2   501   511  7.032182449E+01  1.811145662E+01  1.314323776E+02  1.501587618E+02  3.303624740E-06  0.00000E+00  9.000E+00
#rwgt            1           1   5.1987762708755360E-002           8      310224           0
</event>
<event>
      5   9999  3.79277E-02  1.34820E+01 -1.00000E+00  1.81863E-01
      21    -1     0     0   502   501  0.000000000E+00  0.000000000E+00  3.012549574E+02  3.012549574E+02  0.000000000E+00  0.00000E+00  9.000E+00
       1    -1     0     0   501     0  0.000000000E+00  0.000000000E+00 -2.412203630E+02  2.412203630E+02  0.000000000E+00  0.00000E+00  9.000E+00
      25     1     1     2     0     0 -6.554705533E+01 -1.458172827E+02  1.232519642E+02  2.374345027E+02  1.250000000E+02  0.00000E+00  9.000E+00
      25     1     1     2     0     0  5.209286242E+01  1.449513353E+02  3.880867172E+01  2.021278529E+02  1.250000000E+02  0.00000E+00  9.000E+00
       1     1     1     2   502     0  1.345419291E+01  8.659473926E-01 -1.020260415E+02  1.029129648E+02  1.348699152E-06  0.00000E+00  9.000E+00
#rwgt            1           1   2.5661531164505827E-002           8      310490           0
</event>
<event>
      5   9999  3.79277E-02  2.75182E+02 -1.00000E+00  1.06825E-01
      21    -1     0     0   502   501  0.000000000E+00  0.000000000E+00  9.105100161E+02  9.105100161E+02  0.000000000E+00  0.00000E+00  9.000E+00
       1    -1     0     0   501     0  0.000000000E+00  0.000000000E+00 -3.351464700E+02  3.351464700E+02  0.000000000E+00  0.00000E+00  9.000E+00
      25     1     1     2     0     0 -2.460796110E+02  1.959935546E+02  6.336968779E+02  7.184465057E+02  1.250000000E+02  0.00000E+00  9.000E+00
      25     1     1     2     0     0  1.125275830E+00 -7.060380054E+01  1.300593446E+02  1.937178257E+02  1.250000000E+02  0.00000E+00  9.000E+00
       1     1     1     2   502     0  2.449543352E+02 -1.253897540E+02 -1.883926764E+02  3.334921547E+02  2.697398305E-06  0.00000E+00  9.000E+00
#rwgt            2          12   1.6006174152992080E-004           8      310650           0
</event>
<event>
      5   9999  3.79277E-02  5.60742E+01 -1.00000E+00  1.36293E-01
      21    -1     0     0   502   501  0.000000000E+00  0.000000000E+00  3.817774897E+02  3.817774897E+02  0.000000000E+00  0.00000E+00  9.000E+00
      21    -1     0     0   511   502  0.000000000E+00  0.000000000E+00 -3.264963490E+02  3.264963490E+02  0.000000000E+00  0.00000E+00  9.000E+00
      25     1     1     2     0     0 -1.794638900E+02  1.032554083E+02  2.742436152E+02  3.656549297E+02  1.250000000E+02  0.00000E+00  9.000E+00
      25     1     1     2     0     0  1.234982772E+02 -9.976741525E+01 -1.402211432E+02  2.459518868E+02  1.250000000E+02  0.00000E+00  9.000E+00
      21     1     1     2   511   501  5.596561288E+01 -3.487993071E+00 -7.874133128E+01  9.666702216E+01  0.000000000E+00  0.00000E+00  9.000E+00
#rwgt            1           1   3.6080735869763000E-002           8      310699           0
</event>
<event>
      5   9999  3.79277E-02  5.17988E+01 -1.00000E+00  1.38205E-01
      21    -1     0     0   502   512  0.000000000E+00  0.000000000E+00  4.435517512E+02  4.435517512E+02  0.000000000E+00  0.00000E+00  9.000E+00
      21    -1     0     0   501   502  0.000000000E+00  0.000000000E+00 -2.401916790E+02  2.401916790E+02  0.000000000E+00  0.00000E+00  9.000E+00
      25     1     1     2     0     0 -8.875794341E+01 -9.032856569E+01 -1.616036958E+02  2.403704990E+02  1.250000000E+02  0.00000E+00  9.000E+00
      25     1     1     2     0     0  6.195897765E+01  1.346561264E+02  2.430923974E+02  3.109503192E+02  1.250000000E+02  0.00000E+00  9.000E+00
      21     1     1     2   501   512  2.679896577E+01 -4.432756075E+01  1.218713705E+02  1.324226120E+02  1.907348633E-06  0.00000E+00  9.000E+00
#rwgt            1           1   3.7628879128161569E-002           8      310813           0
</event>
<event>
      5   9999  3.79277E-02  1.22839E+02 -1.00000E+00  1.19939E-01
      21    -1     0     0   502   501  0.000000000E+00  0.000000000E+00  5.224462826E+02  5.224462826E+02  0.000000000E+00  0.00000E+00  9.000E+00
      21    -1     0     0   501   511  0.000000000E+00  0.000000000E+00 -1.881369736E+02  1.881369736E+02  0.000000000E+00  0.00000E+00  9.000E+00
      25     1     1     2     0     0 -1.316522692E+01  1.347810637E+01 -4.419903157E+00  1.264892015E+02  1.250000000E+02  0.00000E+00  9.000E+00
      25     1     1     2     0     0 -9.228668282E+01 -7.648102618E+01  4.078844304E+02  4.431262662E+02  1.250000000E+02  0.00000E+00  9.000E+00
      21     1     1     2   502   511  1.054519097E+02  6.300291981E+01 -6.915521829E+01  1.409677885E+02  0.000000000E+00  0.00000E+00  9.000E+00
#rwgt            1           1   4.8395092282928140E-002           8      310968           0
</event>
<event>
      5   9999  3.79277E-02  5.62304E+01 -1.00000E+00  1.36227E-01
      21    -1     0     0   512   501  0.000000000E+00  0.000000000E+00  3.746053027E+02  3.746053027E+02  0.000000000E+00  0.00000E+00  9.000E+00
      21    -1     0     0   501   502  0.000000000E+00  0.000000000E+00 -5.298212324E+02  5.298212324E+02  0.000000000E+00  0.00000E+00  9.000E+00
      25     1     1     2     0     0 -1.004629990E+02  5.688964725E+00 -3.370421178E+02  3.732928711E+02  1.250000000E+02  0.00000E+00  9.000E+00
      25     1     1     2     0     0  8.550383496E+01  4.851514826E+01 -1.354622932E+02  2.089010729E+02  1.250000000E+02  0.00000E+00  9.000E+00
      21     1     1     2   512   502  1.495916402E+01 -5.420411298E+01  3.172884811E+02  3.222325910E+02  3.814697266E-06  0.00000E+00  9.000E+00
#rwgt            1           1   4.0425144475771863E-002           8      311260           0
</event>
<event>
      5   9999  3.79277E-02  4.24898E+01 -1.00000E+00  1.43232E-01
      21    -1     0     0   502   501  0.000000000E+00  0.000000000E+00  1.036011478E+02  1.036011478E+02  0.000000000E+00  0.00000E+00  9.000E+00
      21    -1     0     0   501   511  0.000000000E+00  0.000000000E+00 -5.853759833E+02  5.853759833E+02  0.000000000E+00  0.00000E+00  9.000E+00
      25     1     1     2     0     0 -2.420266451E+01 -7.891394184E+00 -4.627362913E+02  4.799978316E+02  1.250000000E+02  0.00000E+00  9.000E+00
      25     1     1     2     0     0 -1.761358588E+01  3.557905207E-01  4.337153313E+01  1.334782937E+02  1.250000000E+02  0.00000E+00  9.000E+00
      21     1     1     2   502   511  4.181625039E+01  7.535603663E+00 -6.241007730E+01  7.550100574E+01  9.536743164E-07  0.00000E+00  9.000E+00
#rwgt            1           1   7.6111385719827822E-003           8      311489           0
</event>
<event>
      5   9999  3.79277E-02  5.23527E+01 -1.00000E+00  1.37946E-01
      21    -1     0     0   502   512  0.000000000E+00  0.000000000E+00  8.597510737E+02  8.597510737E+02  0.000000000E+00  0.00000E+00  9.000E+00
      21    -1     0     0   501   502  0.000000000E+00  0.000000000E+00 -9.627708890E+01  9.627708890E+01  0.000000000E+00  0.00000E+00  9.000E+00
      25     1     1     2     0     0 -1.277867948E+02  5.823718245E+01  2.604272261E+01  1.898005736E+02  1.250000000E+02  0.00000E+00  9.000E+00
      25     1     1     2     0     0  8.742839734E+01 -2.489043191E+01  5.133777521E+02  5.361389508E+02  1.250000000E+02  0.00000E+00  9.000E+00
      21     1     1     2   501   512  4.035839745E+01 -3.334675054E+01  2.240535101E+02  2.300886382E+02  2.697398305E-06  0.00000E+00  9.000E+00
#rwgt            1           1   4.8442710886115903E-002           8      311724           0
</event>
<event>
      5   9999  3.79277E-02  4.24544E+01 -1.00000E+00  1.43254E-01
      21    -1     0     0   502   501  0.000000000E+00  0.000000000E+00  8.119526362E+02  8.119526362E+02  0.000000000E+00  0.00000E+00  9.000E+00
      21    -1     0     0   511   502  0.000000000E+00  0.000000000E+00 -1.271486136E+02  1.271486136E+02  0.000000000E+00  0.00000E+00  9.000E+00
      25     1     1     2     0     0  4.899487898E+01  2.140561306E+02  5.141927999E+02  5.729221244E+02  1.250000000E+02  0.00000E+00  9.000E+00
      25     1     1     2     0     0 -8.827274929E+01 -1.979432280E+02  1.950052074E+02  3.172154326E+02  1.250000000E+02  0.00000E+00  9.000E+00
      21     1     1     2   511   501  3.927787031E+01 -1.611290259E+01 -2.439398465E+01  4.896369281E+01  1.390207266E-06  0.00000E+00  9.000E+00
#rwgt            1           1   3.4781736890618503E-002           8      311911           0
</event>
<event>
      5   9999  3.79277E-02  1.70194E+01 -1.00000E+00  1.72367E-01
       2    -1     0     0   502     0  0.000000000E+00  0.000000000E+00  1.159403825E+03  1.159403825E+03  0.000000000E+00  0.00000E+00  9.000E+00
      21    -1     0     0   501   502  0.000000000E+00  0.000000000E+00 -1.184072695E+02  1.184072695E+02  0.000000000E+00  0.00000E+00  9.000E+00
      25     1     1     2     0     0  1.092721365E+02  4.643138071E+01  6.681045070E+02  6.899890617E+02  1.250000000E+02  0.00000E+00  9.000E+00
      25     1     1     2     0     0 -9.320041668E+01 -4.083129945E+01 -4.676051814E+01  1.678244879E+02  1.250000000E+02  0.00000E+00  9.000E+00
       2     1     1     2   501     0 -1.607171984E+01 -5.600081258E+00  4.196525670E+02  4.199975454E+02  0.000000000E+00  0.00000E+00  9.000E+00
#rwgt            1           1   4.0988786534136394E-002           8      312058           0
</event>
<event>
      5   9999  3.79277E-02  8.69598E+01 -1.00000E+00  1.26620E-01
      21    -1     0     0   511   501  0.000000000E+00  0.000000000E+00  1.277172220E+03  1.277172220E+03  0.000000000E+00  0.00000E+00  9.000E+00
      21    -1     0     0   501   502  0.000000000E+00  0.000000000E+00 -8.330941754E+01  8.330941754E+01  0.000000000E+00  0.00000E+00  9.000E+00
      25     1     1     2     0     0  3.309497187E+01 -1.421570588E+02  2.400669119E+02  3.075077701E+02  1.250000000E+02  0.00000E+00  9.000E+00
      25     1     1     2     0     0 -2.424704920E+01  2.286655920E+02  3.207464759E+02  4.139796784E+02  1.250000000E+02  0.00000E+00  9.000E+00
      21     1     1     2   511   502 -8.847922679E+00 -8.650853327E+01  6.330494150E+02  6.389941892E+02  1.078959322E-05  0.00000E+00  9.000E+00
#rwgt            1           1   3.5116446642279586E-002           8      312375           0
</event>
<event>
      5   9999 -3.79277E-02  2.26501E+01 -1.00000E+00  1.62030E-01
      21    -1     0     0   502   501  0.000000000E+00  0.000000000E+00  1.597703136E+03  1.597703136E+03  0.000000000E+00  0.00000E+00  9.000E+00
      -1    -1     0     0     0   502  0.000000000E+00  0.000000000E+00 -9.804226993E+02  9.804226993E+02  0.000000000E+00  0.00000E+00  9.000E+00
      25     1     1     2     0     0 -1.092866141E+02  4.006987326E+01  7.530063491E+02  7.721351698E+02  1.250000000E+02  0.00000E+00  9.000E+00
      25     1     1     2     0     0  1.123109557E+02 -1.762257630E+01  8.264513912E+02  8.435468025E+02  1.250000000E+02  0.00000E+00  9.000E+00
      -1     1     1     2     0   501 -3.024341556E+00 -2.244729696E+01 -9.621773030E+02  9.624438634E+02  1.078959322E-05  0.00000E+00  9.000E+00
#rwgt            1           1  -1.3828931277232035E-002           8      312437           0
</event>
<event>
      5   9999  3.79277E-02  5.50663E+00 -1.00000E+00  2.31419E-01
      21    -1     0     0   511   501  0.000000000E+00  0.000000000E+00  1.402469350E+02  1.402469350E+02  0.000000000E+00  0.00000E+00  9.000E+00
      21    -1     0     0   501   502  0.000000000E+00  0.000000000E+00 -4.702473805E+02  4.702473805E+02  0.000000000E+00  0.00000E+00  9.000E+00
      25     1     1     2     0     0  1.665508129E+02 -2.366548497E+01 -2.899266621E+02  3.577452975E+02  1.250000000E+02  0.00000E+00  9.000E+00
      25     1     1     2     0     0 -1.719972141E+02  2.285326756E+01 -6.791229727E+01  2.243711069E+02  1.250000000E+02  0.00000E+00  9.000E+00
      21     1     1     2   511   502  5.446401144E+00  8.122174130E-01  2.783851392E+01  2.837791113E+01  5.840038640E-07  0.00000E+00  9.000E+00
#rwgt            1           1   3.6688262878169682E-002           8      312549           0
</event>
<event>
      5   9999  3.79277E-02  4.37693E+01 -1.00000E+00  1.42456E-01
      21    -1     0     0   512   501  0.000000000E+00  0.000000000E+00  7.071708027E+01  7.071708027E+01  0.000000000E+00  0.00000E+00  9.000E+00
      21    -1     0     0   501   502  0.000000000E+00  0.000000000E+00 -8.508597340E+02  8.508597340E+02  0.000000000E+00  0.00000E+00  9.000E+00
      25     1     1     2     0     0  6.161435812E+01 -4.331175664E+01 -1.393782795E+02  2.018007487E+02  1.250000000E+02  0.00000E+00  9.000E+00
      25     1     1     2     0     0 -1.053488601E+02  4.156589773E+01 -6.529154942E+02  6.743513541E+02  1.250000000E+02  0.00000E+00  9.000E+00
      21     1     1     2   512   502  4.373450202E+01  1.745858907E+00  1.215112001E+01  4.542471143E+01  1.203954809E-06  0.00000E+00  9.000E+00
#rwgt            2          11   1.2392076389762050E-003           8      312956           0
</event>
<event>
      5   9999  3.79277E-02  3.90536E+01 -1.00000E+00  1.45488E-01
      21    -1     0     0   502   501  0.000000000E+00  0.000000000E+00  6.040184782E+02  6.040184782E+02  0.000000000E+00  0.00000E+00  9.000E+00
      21    -1     0     0   501   511  0.000000000E+00  0.000000000E+00 -1.587332086E+02  1.587332086E+02  0.000000000E+00  0.00000E+00  9.000E+00
      25     1     1     2     0     0  2.046114761E+02  4.314099576E+01  3.296678868E+01  2.458430613E+02  1.250000000E+02  0.00000E+00  9.000E+00
      25     1     1     2     0     0 -1.817246898E+02 -1.149647927E+01  4.223267655E+02  4.765930431E+02  1.250000000E+02  0.00000E+00  9.000E+00
      21     1     1     2   502   511 -2.288678630E+01 -3.164451649E+01 -1.000828458E+01  4.031558224E+01  8.429369702E-07  0.00000E+00  9.000E+00
#rwgt            1           1   4.0008256610933345E-002           8      312991           0
</event>
<event>
      5   9999  3.79277E-02  1.75191E+01 -1.00000E+00  1.71259E-01
      21    -1     0     0   502   512  0.000000000E+00  0.000000000E+00  5.058480844E+02  5.058480844E+02  0.000000000E+00  0.00000E+00  9.000E+00
      21    -1     0     0   501   502  0.000000000E+00  0.000000000E+00 -1.834836780E+02  1.834836780E+02  0.000000000E+00  0.00000E+00  9.000E+00
      25     1     1     2     0     0 -1.276506149E+02 -1.446245524E+02  3.770163422E+02  4.415622979E+02  1.250000000E+02  0.00000E+00  9.000E+00
      25     1     1     2     0     0  1.145664851E+02  1.329744359E+02 -6.776463860E+01  2.258865343E+02  1.250000000E+02  0.00000E+00  9.000E+00
      21     1     1     2   501   512  1.308412973E+01  1.165011646E+01  1.311270274E+01  2.188293028E+01  4.129530925E-07  0.00000E+00  9.000E+00
#rwgt            1           1   3.8418007037052067E-002           8      313106           0
</event>
<event>
      5   9999  3.79277E-02  7.79052E+01 -1.00000E+00  1.28910E-01
      21    -1     0     0   502   501  0.000000000E+00  0.000000000E+00  8.291568029E+02  8.291568029E+02  0.000000000E+00  0.00000E+00  9.000E+00
       2    -1     0     0   501     0  0.000000000E+00  0.000000000E+00 -1.195710112E+03  1.195710112E+03  0.000000000E+00  0.00000E+00  9.000E+00
      25     1     1     2     0     0  2.816404918E+02  1.682397953E+02  4.825545050E+02  5.967493994E+02  1.250000000E+02  0.00000E+00  9.000E+00
      25     1     1     2     0     0 -3.416865491E+02 -1.186041457E+02  1.608874206E+02  4.151221548E+02  1.250000000E+02  0.00000E+00  9.000E+00
       2     1     1     2   502     0  6.004605731E+01 -4.963564960E+01 -1.009995234E+03  1.012995360E+03  1.078959322E-05  0.00000E+00  9.000E+00
#rwgt            1           1   3.6598980866992585E-002           8      313242           0
</event>
<event>
      5   9999  3.79277E-02  2.20469E+01 -1.00000E+00  1.62952E-01
      21    -1     0     0   502   501  0.000000000E+00  0.000000000E+00  3.039622635E+02  3.039622635E+02  0.000000000E+00  0.00000E+00  9.000E+00
      21    -1     0     0   501   511  0.000000000E+00  0.000000000E+00 -2.117216858E+02  2.117216858E+02  0.000000000E+00  0.00000E+00  9.000E+00
      25     1     1     2     0     0 -5.076744779E+01  1.190772518E+02  1.818309923E+02  2.558207095E+02  1.250000000E+02  0.00000E+00  9.000E+00
      25     1     1     2     0     0  4.039892709E+01 -9.962069003E+01  2.787154955E+00  1.648912473E+02  1.250000000E+02  0.00000E+00  9.000E+00
      21     1     1     2   502   511  1.036852070E+01 -1.945656172E+01 -9.237756951E+01  9.497199253E+01  0.000000000E+00  0.00000E+00  9.000E+00
#rwgt            1           1   4.8551306593215805E-002           8      313343           0
</event>
<event>
      5   9999  3.79277E-02  2.79738E+01 -1.00000E+00  1.55180E-01
      21    -1     0     0   502   501  0.000000000E+00  0.000000000E+00  3.692842849E+02  3.692842849E+02  0.000000000E+00  0.00000E+00  9.000E+00
      21    -1     0     0   501   512  0.000000000E+00  0.000000000E+00 -2.300499145E+02  2.300499145E+02  0.000000000E+00  0.00000E+00  9.000E+00
      25     1     1     2     0     0  1.970060421E+01  2.574634784E+02  9.691798969E+01  3.028095990E+02  1.250000000E+02  0.00000E+00  9.000E+00
      25     1     1     2     0     0 -1.426694432E+01 -2.300224453E+02  5.128181911E+01  2.671492018E+02  1.250000000E+02  0.00000E+00  9.000E+00
      21     1     1     2   502   512 -5.433659896E+00 -2.744103311E+01 -8.965438418E+00  2.937539862E+01  5.196212463E-07  0.00000E+00  9.000E+00
#rwgt            1           1   3.8064050466232117E-002           8      313451           0
</event>
<event>
      5   9999  3.79277E-02  3.13442E+01 -1.00000E+00  1.51729E-01
      21    -1     0     0   502   501  0.000000000E+00  0.000000000E+00  3.476096418E+02  3.476096418E+02  0.000000000E+00  0.00000E+00  9.000E+00
      21    -1     0     0   501   511  0.000000000E+00  0.000000000E+00 -8.651259069E+02  8.651259069E+02  0.000000000E+00  0.00000E+00  9.000E+00
      25     1     1     2     0     0 -2.717928409E+01  1.126274707E+02  2.339951248E+02  2.894864057E+02  1.250000000E+02  0.00000E+00  9.000E+00
      25     1     1     2     0     0  1.326641537E+01 -1.407147287E+02 -1.852309095E+01  1.895909743E+02  1.250000000E+02  0.00000E+00  9.000E+00
      21     1     1     2   502   511  1.391286872E+01  2.808725795E+01 -7.329882990E+02  7.336581686E+02  0.000000000E+00  0.00000E+00  9.000E+00
#rwgt            1           1   3.6745996434592372E-002           8      313635           0
</event>
<event>
      5   9999  3.79277E-02  2.30200E+02 -1.00000E+00  1.09469E-01
      21    -1     0     0   502   501  0.000000000E+00  0.000000000E+00  1.824130616E+02  1.824130616E+02  0.000000000E+00  0.00000E+00  9.000E+00
       1    -1     0     0   501     0  0.000000000E+00  0.000000000E+00 -2.789830499E+03  2.789830499E+03  0.000000000E+00  0.00000E+00  9.000E+00
      25     1     1     2     0     0  1.478657918E+02  1.169496684E+02 -2.101039710E+02  3.087234944E+02  1.250000000E+02  0.00000E+00  9.000E+00
      25     1     1     2     0     0 -2.212054784E+02  1.012555749E+02 -1.908709189E+01  2.741785407E+02  1.250000000E+02  0.00000E+00  9.000E+00
       1     1     1     2   502     0  7.333968653E+01 -2.182052432E+02 -2.378226375E+03  2.389341526E+03  0.000000000E+00  0.00000E+00  9.000E+00
#rwgt            1           1   3.4535157375771314E-002           8      313768           0
</event>
<event>
      5   9999  3.79277E-02  2.97631E+01 -1.00000E+00  1.53279E-01
      21    -1     0     0   502   501  0.000000000E+00  0.000000000E+00  5.693013648E+02  5.693013648E+02  0.000000000E+00  0.00000E+00  9.000E+00
      21    -1     0     0   501   511  0.000000000E+00  0.000000000E+00 -1.100707927E+02  1.100707927E+02  0.000000000E+00  0.00000E+00  9.000E+00
      25     1     1     2     0     0 -1.622771483E+02  1.344774104E+01  7.167154945E+01  2.174316573E+02  1.250000000E+02  0.00000E+00  9.000E+00
      25     1     1     2     0     0  1.680372693E+02 -4.264809673E+01  3.702486109E+02  4.275095530E+02  1.250000000E+02  0.00000E+00  9.000E+00
      21     1     1     2   502   511 -5.760120943E+00  2.920035570E+01  1.731041166E+01  3.443094710E+01  7.907449699E-07  0.00000E+00  9.000E+00
#rwgt            1           1   2.4506998591059398E-002           8      313873           0
</event>
<event>
      5   9999  3.79277E-02  6.35195E+01 -1.00000E+00  1.33394E-01
      21    -1     0     0   512   501  0.000000000E+00  0.000000000E+00  5.161907842E+02  5.161907842E+02  0.000000000E+00  0.00000E+00  9.000E+00
      21    -1     0     0   501   502  0.000000000E+00  0.000000000E+00 -3.351223108E+02  3.351223108E+02  0.000000000E+00  0.00000E+00  9.000E+00
      25     1     1     2     0     0 -2.186929175E+02 -1.331770708E+02 -1.866539780E+02  3.406279962E+02  1.250000000E+02  0.00000E+00  9.000E+00
      25     1     1     2     0     0  2.501369714E+02  7.798645860E+01  3.122706340E+02  4.263664399E+02  1.250000000E+02  0.00000E+00  9.000E+00
      21     1     1     2   512   502 -3.144405390E+01  5.519061217E+01  5.545181733E+01  8.431865893E+01  1.507891493E-06  0.00000E+00  9.000E+00
#rwgt            1           1  0.12499800948664819                8      314028           0
</event>
<event>
      5   9999 -3.79277E-02  3.71794E+00 -1.00000E+00  2.71185E-01
      21    -1     0     0   502   501  0.000000000E+00  0.000000000E+00  1.535766615E+02  1.535766615E+02  0.000000000E+00  0.00000E+00  9.000E+00
      21    -1     0     0   511   502  0.000000000E+00  0.000000000E+00 -6.453369172E+02  6.453369172E+02  0.000000000E+00  0.00000E+00  9.000E+00
      25     1     1     2     0     0 -4.209316993E+01 -2.111309289E+02 -4.739455221E+02  5.353479821E+02  1.250000000E+02  0.00000E+00  9.000E+00
      25     1     1     2     0     0  3.869011497E+01  2.126283483E+02 -4.462223006E+00  2.497051280E+02  1.250000000E+02  0.00000E+00  9.000E+00
      21     1     1     2   511   501  3.403054965E+00 -1.497419480E+00 -1.335251063E+01  1.386046854E+01  1.685873940E-07  0.00000E+00  9.000E+00
#rwgt            1           1 -0.10922187586927491                8      314229           0
</event>
<event>
      5   9999  3.79277E-02  7.26818E+00 -1.00000E+00  2.13272E-01
      21    -1     0     0   502   512  0.000000000E+00  0.000000000E+00  1.187227176E+02  1.187227176E+02  0.000000000E+00  0.00000E+00  9.000E+00
      21    -1     0     0   501   502  0.000000000E+00  0.000000000E+00 -3.135829530E+02  3.135829530E+02  0.000000000E+00  0.00000E+00  9.000E+00
      25     1     1     2     0     0  1.391484045E+01 -2.700789267E+00 -2.554183707E+02  2.847182136E+02  1.250000000E+02  0.00000E+00  9.000E+00
      25     1     1     2     0     0 -1.742763696E+01 -3.662121616E+00  6.115890463E+01  1.402944948E+02  1.250000000E+02  0.00000E+00  9.000E+00
      21     1     1     2   501   512  3.512796515E+00  6.362910883E+00 -6.007693288E-01  7.292962227E+00  1.117587090E-07  0.00000E+00  9.000E+00
#rwgt            1           1   4.9595681321421857E-002           8      314781           0
</event>
<event>
      5   9999  3.79277E-02  1.12189E+02 -1.00000E+00  1.21622E-01
      21    -1     0     0   511   501  0.000000000E+00  0.000000000E+00  2.485047830E+02  2.485047830E+02  0.000000000E+00  0.00000E+00  9.000E+00
      21    -1     0     0   501   502  0.000000000E+00  0.000000000E+00 -4.093938149E+02  4.093938149E+02  0.000000000E+00  0.00000E+00  9.000E+00
      25     1     1     2     0     0  3.499212628E+01 -1.608499884E+02 -2.411985865E+02  3.176459127E+02  1.250000000E+02  0.00000E+00  9.000E+00
      25     1     1     2     0     0 -1.175150743E+02  8.484794434E+01 -1.644449093E+01  1.921051473E+02  1.250000000E+02  0.00000E+00  9.000E+00
      21     1     1     2   511   502  8.252294800E+01  7.600204407E+01  9.675404565E+01  1.481475379E+02  1.348699152E-06  0.00000E+00  9.000E+00
#rwgt            1           1   3.1700358092576479E-002           8      315128           0
</event>
<event>
      5   9999  3.79277E-02  2.28214E+01 -1.00000E+00  1.61775E-01
      21    -1     0     0   502   501  0.000000000E+00  0.000000000E+00  1.051519158E+02  1.051519158E+02  0.000000000E+00  0.00000E+00  9.000E+00
      21    -1     0     0   512   502  0.000000000E+00  0.000000000E+00 -5.140992764E+02  5.140992764E+02  0.000000000E+00  0.00000E+00  9.000E+00
      25     1     1     2     0     0  7.776450367E+01 -3.740292225E+01  2.168455712E+01  1.534324498E+02  1.250000000E+02  0.00000E+00  9.000E+00
      25     1     1     2     0     0 -7.541100925E+01  1.470324108E+01 -4.084068509E+02  4.339633181E+02  1.250000000E+02  0.00000E+00  9.000E+00
      21     1     1     2   512   501 -2.353494417E+00  2.269968117E+01 -2.222506686E+01  3.185542431E+01  3.371747881E-07  0.00000E+00  9.000E+00
#rwgt            1           1   3.8795695883148545E-002           8      315218           0
</event>
<event>
      5   9999  3.79277E-02  1.39076E+01 -1.00000E+00  1.80534E-01
      21    -1     0     0   502   501  0.000000000E+00  0.000000000E+00  1.373451030E+02  1.373451030E+02  0.000000000E+00  0.00000E+00  9.000E+00
      21    -1     0     0   511   502  0.000000000E+00  0.000000000E+00 -3.407651753E+02  3.407651753E+02  0.000000000E+00  0.00000E+00  9.000E+00
      25     1     1     2     0     0 -1.858143565E+01  1.476163849E+02 -6.083534643E-01  1.943225076E+02  1.250000000E+02  0.00000E+00  9.000E+00
      25     1     1     2     0     0  1.638537938E+01 -1.338832369E+02 -1.940750507E+02  2.673636607E+02  1.250000000E+02  0.00000E+00  9.000E+00
      21     1     1     2   511   501  2.196056272E+00 -1.373314808E+01 -8.736668187E+00  1.642411004E+01  2.064765462E-07  0.00000E+00  9.000E+00
#rwgt            1           1   3.1221836591130366E-002           8      315372           0
</event>
<event>
      5   9999  3.79277E-02  2.00796E+01 -1.00000E+00  1.66227E-01
      21    -1     0     0   502   501  0.000000000E+00  0.000000000E+00  4.972647401E+02  4.972647401E+02  0.000000000E+00  0.00000E+00  9.000E+00
      21    -1     0     0   501   512  0.000000000E+00  0.000000000E+00 -7.373731794E+02  7.373731794E+02  0.000000000E+00  0.00000E+00  9.000E+00
      25     1     1     2     0     0 -1.090120396E+02  3.585882544E+01  1.792590322E+02  2.468365467E+02  1.250000000E+02  0.00000E+00  9.000E+00
      25     1     1     2     0     0  1.037118185E+02 -1.649136374E+01  2.606121831E+02  3.075253101E+02  1.250000000E+02  0.00000E+00  9.000E+00
      21     1     1     2   502   512  5.300221085E+00 -1.936746170E+01 -6.799796546E+02  6.802760628E+02  0.000000000E+00  0.00000E+00  9.000E+00
#rwgt            1           1   3.6625024492483199E-002           8      315607           0
</event>
<event>
      5   9999  3.79277E-02  9.62872E+01 -1.00000E+00  1.24572E-01
      21    -1     0     0   511   501  0.000000000E+00  0.000000000E+00  5.260456459E+01  5.260456459E+01  0.000000000E+00  0.00000E+00  9.000E+00
      21    -1     0     0   501   502  0.000000000E+00  0.000000000E+00 -9.456548837E+02  9.456548837E+02  0.000000000E+00  0.00000E+00  9.000E+00
      25     1     1     2     0     0  5.333602981E+01 -9.630869058E+01 -4.844556897E+02  5.122913343E+02  1.250000000E+02  0.00000E+00  9.000E+00
      25     1     1     2     0     0 -7.639875741E+01  2.824324890E+00 -3.321209381E+02  3.630069758E+02  1.250000000E+02  0.00000E+00  9.000E+00
      21     1     1     2   511   502  2.306272760E+01  9.348436569E+01 -7.647369128E+01  1.229611381E+02  1.348699152E-06  0.00000E+00  9.000E+00
#rwgt            1           1   9.2891883975427525E-002           8      315798           0
</event>
<event>
      5   9999  3.79277E-02  3.71336E+01 -1.00000E+00  1.46872E-01
      21    -1     0     0   502   501  0.000000000E+00  0.000000000E+00  9.511457461E+01  9.511457461E+01  0.000000000E+00  0.00000E+00  9.000E+00
      21    -1     0     0   512   502  0.000000000E+00  0.000000000E+00 -6.455521727E+02  6.455521727E+02  0.000000000E+00  0.00000E+00  9.000E+00
      25     1     1     2     0     0 -9.205353167E+01  9.327691208E+01 -3.792415496E+02  4.202660919E+02  1.250000000E+02  0.00000E+00  9.000E+00
      25     1     1     2     0     0  1.213885098E+02 -1.160445778E+02 -8.389888343E+01  2.255338932E+02  1.250000000E+02  0.00000E+00  9.000E+00
      21     1     1     2   512   501 -2.933497816E+01  2.276766574E+01 -8.729716505E+01  9.486676221E+01  1.348699152E-06  0.00000E+00  9.000E+00
#rwgt            1           1   4.2868774320981476E-002           8      315830           0
</event>
<event>
      5   9999  3.79277E-02  2.39567E+01 -1.00000E+00  1.60150E-01
      21    -1     0     0   502   511  0.000000000E+00  0.000000000E+00  4.370922379E+02  4.370922379E+02  0.000000000E+00  0.00000E+00  9.000E+00
      21    -1     0     0   501   502  0.000000000E+00  0.000000000E+00 -1.448083779E+02  1.448083779E+02  0.000000000E+00  0.00000E+00  9.000E+00
      25     1     1     2     0     0 -8.440610767E+01  2.224642520E+01  3.248192276E+02  3.588200455E+02  1.250000000E+02  0.00000E+00  9.000E+00
      25     1     1     2     0     0  1.044478625E+02 -9.122004721E+00 -7.086931335E+01  1.778764361E+02  1.250000000E+02  0.00000E+00  9.000E+00
      21     1     1     2   501   511 -2.004175486E+01 -1.312442048E+01  3.833394571E+01  4.520413416E+01  4.768371582E-07  0.00000E+00  9.000E+00
#rwgt            1           1   4.7790341984612295E-002           8      315926           0
</event>
<event>
      5   9999  3.79277E-02  7.27762E+01 -1.00000E+00  1.30371E-01
      21    -1     0     0   502   501  0.000000000E+00  0.000000000E+00  2.161849017E+02  2.161849017E+02  0.000000000E+00  0.00000E+00  9.000E+00
      21    -1     0     0   512   502  0.000000000E+00  0.000000000E+00 -6.066148939E+02  6.066148939E+02  0.000000000E+00  0.00000E+00  9.000E+00
      25     1     1     2     0     0 -3.153781674E+01 -1.509750783E+02 -2.473257610E+02  3.171484514E+02  1.250000000E+02  0.00000E+00  9.000E+00
      25     1     1     2     0     0  8.053960415E-01  8.500615099E+01  1.444159013E+02  2.090637389E+02  1.250000000E+02  0.00000E+00  9.000E+00
      21     1     1     2   512   501  3.073242070E+01  6.596892726E+01 -2.875201325E+02  2.965876053E+02  5.394796609E-06  0.00000E+00  9.000E+00
#rwgt            1           1   3.8264679338297483E-002           8      316120           0
</event>
<event>
      5   9999  3.79277E-02  1.42647E+02 -1.00000E+00  1.17265E-01
      21    -1     0     0   502   511  0.000000000E+00  0.000000000E+00  1.707894897E+02  1.707894897E+02  0.000000000E+00  0.00000E+00  9.000E+00
      21    -1     0     0   501   502  0.000000000E+00  0.000000000E+00 -1.163087887E+03  1.163087887E+03  0.000000000E+00  0.00000E+00  9.000E+00
      25     1     1     2     0     0 -2.700608834E+02  1.691360395E+01 -9.074097716E+01  3.115732268E+02  1.250000000E+02  0.00000E+00  9.000E+00
      25     1     1     2     0     0  1.966906392E+02 -1.392449244E+02 -8.062965416E+02  8.507734537E+02  1.250000000E+02  0.00000E+00  9.000E+00
      21     1     1     2   501   511  7.337024422E+01  1.223313205E+02 -9.526087808E+01  1.715306958E+02  2.336015456E-06  0.00000E+00  9.000E+00
#rwgt            1           1   4.1514439507553139E-002           8      316285           0
</event>
<event>
      5   9999  3.79277E-02  1.02700E+01 -1.00000E+00  1.94429E-01
      21    -1     0     0   502   501  0.000000000E+00  0.000000000E+00  7.328097569E+02  7.328097569E+02  0.000000000E+00  0.00000E+00  9.000E+00
      21    -1     0     0   512   502  0.000000000E+00  0.000000000E+00 -6.501356241E+01  6.501356241E+01  0.000000000E+00  0.00000E+00  9.000E+00
      25     1     1     2     0     0  4.985242031E+01 -1.564418293E+02  3.774460674E+02  4.301742014E+02  1.250000000E+02  0.00000E+00  9.000E+00
      25     1     1     2     0     0 -5.413842111E+01  1.657746958E+02  2.823834396E+02  3.546514139E+02  1.250000000E+02  0.00000E+00  9.000E+00
      21     1     1     2   512   501  4.286000793E+00 -9.332866551E+00  7.966687549E+00  1.299770408E+01  1.685873940E-07  0.00000E+00  9.000E+00
#rwgt            1           1   3.0324807688411122E-002           8      316450           0
</event>
<event>
      5   9999  3.79277E-02  6.47047E+01 -1.00000E+00  1.32975E-01
      21    -1     0     0   502   501  0.000000000E+00  0.000000000E+00  2.404907327E+02  2.404907327E+02  0.000000000E+00  0.00000E+00  9.000E+00
      21    -1     0     0   501   511  0.000000000E+00  0.000000000E+00 -2.314806178E+02  2.314806178E+02  0.000000000E+00  0.00000E+00  9.000E+00
      25     1     1     2     0     0  1.261854921E+02  1.172329943E+02 -1.788075214E+00  2.128251643E+02  1.250000000E+02  0.00000E+00  9.000E+00
      25     1     1     2     0     0 -6.566055694E+01 -9.435433814E+01  5.756271016E+01  1.793112251E+02  1.250000000E+02  0.00000E+00  9.000E+00
      21     1     1     2   502   511 -6.052493514E+01 -2.287865615E+01 -4.676452005E+01  7.983496111E+01  9.536743164E-07  0.00000E+00  9.000E+00
#rwgt            1           1   3.7104274833989391E-002           8      316687           0
</event>
<event>
      5   9999  3.79277E-02  7.47029E+01 -1.00000E+00  1.29806E-01
      21    -1     0     0   502   501  0.000000000E+00  0.000000000E+00  4.209763204E+02  4.209763204E+02  0.000000000E+00  0.00000E+00  9.000E+00
      21    -1     0     0   501   512  0.000000000E+00  0.000000000E+00 -1.781726885E+02  1.781726885E+02  0.000000000E+00  0.00000E+00  9.000E+00
      25     1     1     2     0     0 -2.433605458E+01 -1.738658196E+02  2.331644414E+02  3.175094069E+02  1.250000000E+02  0.00000E+00  9.000E+00
      25     1     1     2     0     0  8.932101385E+01  1.370218424E+02 -2.963689698E+00  2.058810634E+02  1.250000000E+02  0.00000E+00  9.000E+00
      21     1     1     2   502   512 -6.498495927E+01  3.684397712E+01  1.260288020E+01  7.575853860E+01  7.907449699E-07  0.00000E+00  9.000E+00
#rwgt            1           1   2.0119191170265234E-002           8      316798           0
</event>
<event>
      5   9999  3.79277E-02  5.31520E+01 -1.00000E+00  1.37577E-01
      21    -1     0     0   502   501  0.000000000E+00  0.000000000E+00  5.017914349E+02  5.017914349E+02  0.000000000E+00  0.00000E+00  9.000E+00
      21    -1     0     0   501   511  0.000000000E+00  0.000000000E+00 -2.105253103E+02  2.105253103E+02  0.000000000E+00  0.00000E+00  9.000E+00
      25     1     1     2     0     0  5.673431351E+01  1.332515434E+02 -8.495946227E+01  2.093271754E+02  1.250000000E+02  0.00000E+00  9.000E+00
      25     1     1     2     0     0 -9.375241067E+01 -1.713933876E+02  3.846626299E+02  4.491720680E+02  1.250000000E+02  0.00000E+00  9.000E+00
      21     1     1     2   502   511  3.701809716E+01  3.814184425E+01 -8.437043077E+00  5.381750176E+01  1.272806913E-06  0.00000E+00  9.000E+00
#rwgt            1           1   1.6865176673810267E-002           8      316910           0
</event>
<event>
      5   9999  3.79277E-02  3.22457E+01 -1.00000E+00  1.50894E-01
      21    -1     0     0   502   512  0.000000000E+00  0.000000000E+00  6.749396674E+02  6.749396674E+02  0.000000000E+00  0.00000E+00  9.000E+00
      21    -1     0     0   501   502  0.000000000E+00  0.000000000E+00 -2.616810882E+02  2.616810882E+02  0.000000000E+00  0.00000E+00  9.000E+00
      25     1     1     2     0     0  1.709835810E+02  1.916416508E+02  4.025852654E+02  4.936211130E+02  1.250000000E+02  0.00000E+00  9.000E+00
      25     1     1     2     0     0 -1.943509834E+02 -2.138620812E+02 -9.791108504E+01  3.297284869E+02  1.250000000E+02  0.00000E+00  9.000E+00
      21     1     1     2   501   512  2.336740242E+01  2.222043036E+01  1.085843989E+02  1.132711557E+02  0.000000000E+00  0.00000E+00  9.000E+00
#rwgt            1           1   3.6842724950349980E-002           8      317017           0
</event>
<event>
      5   9999  3.79277E-02  3.95796E+01 -1.00000E+00  1.45125E-01
      21    -1     0     0   502   501  0.000000000E+00  0.000000000E+00  5.847657884E+02  5.847657884E+02  0.000000000E+00  0.00000E+00  9.000E+00
      21    -1     0     0   511   502  0.000000000E+00  0.000000000E+00 -1.069869927E+02  1.069869927E+02  0.000000000E+00  0.00000E+00  9.000E+00
      25     1     1     2     0     0  5.012873289E+01 -1.022360922E+02  2.153329248E+02  2.737852752E+02  1.250000000E+02  0.00000E+00  9.000E+00
      25     1     1     2     0     0 -8.930872285E+01  1.078462455E+02  3.060842735E+02  3.590535380E+02  1.250000000E+02  0.00000E+00  9.000E+00
      21     1     1     2   511   501  3.917998996E+01 -5.610153295E+00 -4.363840267E+01  5.891396796E+01  6.743495762E-07  0.00000E+00  9.000E+00
#rwgt            1           1  0.10055004878383440                8      317212           0
</event>
<event>
      5   9999  3.79277E-02  3.89633E+01 -1.00000E+00  1.45551E-01
      21    -1     0     0   502   512  0.000000000E+00  0.000000000E+00  1.138191044E+02  1.138191044E+02  0.000000000E+00  0.00000E+00  9.000E+00
      21    -1     0     0   501   502  0.000000000E+00  0.000000000E+00 -4.094811441E+02  4.094811441E+02  0.000000000E+00  0.00000E+00  9.000E+00
      25     1     1     2     0     0  3.203988855E+01 -4.266802017E+01 -2.980996887E+02  3.276210293E+02  1.250000000E+02  0.00000E+00  9.000E+00
      25     1     1     2     0     0 -5.719070076E+01  1.290937812E+01 -3.415297646E+01  1.422281762E+02  1.250000000E+02  0.00000E+00  9.000E+00
      21     1     1     2   501   512  2.515081221E+01  2.975864205E+01  3.659062548E+01  5.345104306E+01  1.066240300E-06  0.00000E+00  9.000E+00
#rwgt            1           1   4.4586777223225439E-002           8      317308           0
</event>
<event>
      5   9999  3.79277E-02  5.21622E+01 -1.00000E+00  1.38035E-01
      21    -1     0     0   502   501  0.000000000E+00  0.000000000E+00  1.701066885E+02  1.701066885E+02  0.000000000E+00  0.00000E+00  9.000E+00
      21    -1     0     0   511   502  0.000000000E+00  0.000000000E+00 -5.494412882E+02  5.494412882E+02  0.000000000E+00  0.00000E+00  9.000E+00
      25     1     1     2     0     0 -1.516948734E+02 -1.248953715E+01  5.966789532E+01  2.057974268E+02  1.250000000E+02  0.00000E+00  9.000E+00
      25     1     1     2     0     0  1.499038143E+02  6.462101598E+01 -2.869883162E+02  3.530358663E+02  1.250000000E+02  0.00000E+00  9.000E+00
      21     1     1     2   511   501  1.791059083E+00 -5.213147883E+01 -1.520141788E+02  1.607146836E+02  2.697398305E-06  0.00000E+00  9.000E+00
#rwgt            1           1   4.4681101171969169E-002           8      317384           0
</event>
<event>
      5   9999  3.79277E-02  9.11782E+01 -1.00000E+00  1.25659E-01
      21    -1     0     0   502   501  0.000000000E+00  0.000000000E+00  5.748805668E+02  5.748805668E+02  0.000000000E+00  0.00000E+00  9.000E+00
      21    -1     0     0   501   512  0.000000000E+00  0.000000000E+00 -1.684684830E+02  1.684684830E+02  0.000000000E+00  0.00000E+00  9.000E+00
      25     1     1     2     0     0 -1.656444307E+02  2.046449758E+02  2.784301294E+02  4.030706892E+02  1.250000000E+02  0.00000E+00  9.000E+00
      25     1     1     2     0     0  8.420654376E+01 -1.636408576E+02  7.472995077E+01  2.346883845E+02  1.250000000E+02  0.00000E+00  9.000E+00
      21     1     1     2   502   512  8.143788693E+01 -4.100411821E+01  5.325200366E+01  1.055899760E+02  1.348699152E-06  0.00000E+00  9.000E+00
#rwgt            1           1   2.8374096996108007E-002           8      317577           0
</event>
<event>
      5   9999  3.79277E-02  2.32049E+02 -1.00000E+00  1.09348E-01
      21    -1     0     0   502   511  0.000000000E+00  0.000000000E+00  4.710737274E+02  4.710737274E+02  0.000000000E+00  0.00000E+00  9.000E+00
      21    -1     0     0   501   502  0.000000000E+00  0.000000000E+00 -7.309689525E+02  7.309689525E+02  0.000000000E+00  0.00000E+00  9.000E+00
      25     1     1     2     0     0 -1.591894648E+02 -1.531830758E+02 -6.045016067E+02  6.556321628E+02  1.250000000E+02  0.00000E+00  9.000E+00
      25     1     1     2     0     0  6.132972978E+01 -5.722176639E+01  2.679672827E+01  1.529010495E+02  1.250000000E+02  0.00000E+00  9.000E+00
      21     1     1     2   501   511  9.785973506E+01  2.104048422E+02  3.178096533E+02  3.935094676E+02  7.629394531E-06  0.00000E+00  9.000E+00
#rwgt            1           1   1.5813584729726032E-002           8      317643           0
</event>
<event>
      5   9999  3.79277E-02  1.62154E+02 -1.00000E+00  1.15068E-01
       1    -1     0     0   502     0  0.000000000E+00  0.000000000E+00  3.376078935E+02  3.376078935E+02  0.000000000E+00  0.00000E+00  9.000E+00
      21    -1     0     0   501   502  0.000000000E+00  0.000000000E+00 -1.341719323E+03  1.341719323E+03  0.000000000E+00  0.00000E+00  9.000E+00
      25     1     1     2     0     0  1.004368497E+02  2.527144291E+02 -1.055236162E+03  1.096859381E+03  1.250000000E+02  0.00000E+00  9.000E+00
      25     1     1     2     0     0  2.198026309E+01 -3.590540987E+02 -6.050823092E+01  3.856024167E+02  1.250000000E+02  0.00000E+00  9.000E+00
       1     1     1     2   501     0 -1.224171128E+02  1.063396696E+02  1.116329633E+02  1.968654193E+02  3.568322551E-06  0.00000E+00  9.000E+00
#rwgt            1           1  0.12876301203647977                8      317813           0
</event>
<event>
      5   9999  3.79277E-02  3.42659E+01 -1.00000E+00  1.49135E-01
      21    -1     0     0   502   511  0.000000000E+00  0.000000000E+00  1.444241017E+02  1.444241017E+02  0.000000000E+00  0.00000E+00  9.000E+00
      21    -1     0     0   501   502  0.000000000E+00  0.000000000E+00 -4.989661408E+02  4.989661408E+02  0.000000000E+00  0.00000E+00  9.000E+00
      25     1     1     2     0     0  1.815386872E+01 -1.240599896E+02  2.616622278E+00  1.770657807E+02  1.250000000E+02  0.00000E+00  9.000E+00
      25     1     1     2     0     0  3.176677936E+00  9.724284162E+01 -3.887094119E+02  4.197454805E+02  1.250000000E+02  0.00000E+00  9.000E+00
      21     1     1     2   501   511 -2.133054665E+01  2.681714797E+01  3.155075047E+01  4.657898133E+01  3.371747881E-07  0.00000E+00  9.000E+00
#rwgt            1           1   4.0678602632273943E-002           8      317895           0
</event>
<event>
      5   9999  3.79277E-02  1.70009E+02 -1.00000E+00  1.14278E-01
      21    -1     0     0   512   501  0.000000000E+00  0.000000000E+00  1.842444038E+02  1.842444038E+02  0.000000000E+00  0.00000E+00  9.000E+00
      21    -1     0     0   501   502  0.000000000E+00  0.000000000E+00 -6.554607638E+02  6.554607638E+02  0.000000000E+00  0.00000E+00  9.000E+00
      25     1     1     2     0     0 -6.221792828E+01  1.987605589E+02 -3.314241928E+02  4.109061035E+02  1.250000000E+02  0.00000E+00  9.000E+00
      25     1     1     2     0     0 -7.419148189E+01 -9.729362688E+01 -1.832435835E+02  2.533251600E+02  1.250000000E+02  0.00000E+00  9.000E+00
      21     1     1     2   512   502  1.364094102E+02 -1.014669320E+02  4.345141623E+01  1.754739042E+02  2.286830675E-06  0.00000E+00  9.000E+00
#rwgt            1           1   3.7989452809199305E-002           8      318120           0
</event>
<event>
      5   9999  3.79277E-02  3.22190E+01 -1.00000E+00  1.50918E-01
      21    -1     0     0   502   501  0.000000000E+00  0.000000000E+00  2.363308713E+02  2.363308713E+02  0.000000000E+00  0.00000E+00  9.000E+00
       1    -1     0     0   501     0  0.000000000E+00  0.000000000E+00 -3.124159754E+02  3.124159754E+02  0.000000000E+00  0.00000E+00  9.000E+00
      25     1     1     2     0     0  1.653411959E+02 -1.981827097E+01 -7.494774852E+01  2.212976275E+02  1.250000000E+02  0.00000E+00  9.000E+00
      25     1     1     2     0     0 -1.472851274E+02  4.650240492E+01  9.918749288E+01  2.220777818E+02  1.250000000E+02  0.00000E+00  9.000E+00
       1     1     1     2   502     0 -1.805606857E+01 -2.668413395E+01 -1.003248485E+02  1.053714375E+02  0.000000000E+00  0.00000E+00  9.000E+00
#rwgt            1           1   3.6503029474322830E-002           8      318246           0
</event>
<event>
      5   9999  3.79277E-02  6.36821E+01 -1.00000E+00  1.33336E-01
      21    -1     0     0   502   511  0.000000000E+00  0.000000000E+00  6.075870154E+02  6.075870154E+02  0.000000000E+00  0.00000E+00  9.000E+00
      21    -1     0     0   501   502  0.000000000E+00  0.000000000E+00 -1.077048756E+02  1.077048756E+02  0.000000000E+00  0.00000E+00  9.000E+00
      25     1     1     2     0     0  5.764955506E+00  2.032895207E+02  1.815951002E+02  2.999360671E+02  1.250000000E+02  0.00000E+00  9.000E+00
      25     1     1     2     0     0 -4.486792039E+01 -1.530265839E+02  2.532692484E+02  3.243463856E+02  1.250000000E+02  0.00000E+00  9.000E+00
      21     1     1     2   501   511  3.910296488E+01 -5.026293681E+01  6.501779122E+01  9.100943827E+01  9.536743164E-07  0.00000E+00  9.000E+00
#rwgt            1           1   3.5557083357709816E-002           8      318519           0
</event>
<event>
      5   9999  3.79277E-02  8.37718E+01 -1.00000E+00  1.27388E-01
       4    -1     0     0   502     0  0.000000000E+00  0.000000000E+00  2.812934068E+02  2.812934068E+02  0.000000000E+00  0.00000E+00  9.000E+00
      21    -1     0     0   501   502  0.000000000E+00  0.000000000E+00 -6.543003153E+02  6.543003153E+02  0.000000000E+00  0.00000E+00  9.000E+00
      25     1     1     2     0     0  2.552950867E+02 -1.407334648E+01 -1.293839373E+02  3.126321218E+02  1.250000000E+02  0.00000E+00  9.000E+00
      25     1     1     2     0     0 -1.844229517E+02 -3.059050315E+01 -3.923704658E+02  4.522468203E+02  1.250000000E+02  0.00000E+00  9.000E+00
       4     1     1     2   501     0 -7.087213493E+01  4.466384964E+01  1.487474946E+02  1.707147801E+02  3.303624740E-06  0.00000E+00  9.000E+00
#rwgt            1           1   4.1388992171537159E-002           8      318643           0
</event>
<event>
      5   9999  3.79277E-02  2.11783E+01 -1.00000E+00  1.64344E-01
      21    -1     0     0   511   501  0.000000000E+00  0.000000000E+00  7.281593718E+02  7.281593718E+02  0.000000000E+00  0.00000E+00  9.000E+00
      21    -1     0     0   501   502  0.000000000E+00  0.000000000E+00 -3.951898653E+02  3.951898653E+02  0.000000000E+00  0.00000E+00  9.000E+00
      25     1     1     2     0     0  3.152543920E+01  5.613046160E+00  5.933743487E+02  6.072425194E+02  1.250000000E+02  0.00000E+00  9.000E+00
      25     1     1     2     0     0 -4.986549998E+01  4.977676444E+00 -3.755831333E+02  3.989975380E+02  1.250000000E+02  0.00000E+00  9.000E+00
      21     1     1     2   511   502  1.834006078E+01 -1.059072260E+01  1.151782911E+02  1.171091797E+02  0.000000000E+00  0.00000E+00  9.000E+00
#rwgt            1           1   9.2940393764093285E-002           8      318734           0
</event>
<event>
      5   9999  3.79277E-02  7.46697E+00 -1.00000E+00  2.11665E-01
      21    -1     0     0   512   501  0.000000000E+00  0.000000000E+00  8.397737036E+01  8.397737036E+01  0.000000000E+00  0.00000E+00  9.000E+00
      21    -1     0     0   501   502  0.000000000E+00  0.000000000E+00 -3.913083468E+02  3.913083468E+02  0.000000000E+00  0.00000E+00  9.000E+00
      25     1     1     2     0     0 -1.030278332E+01 -7.790412142E+01 -3.797197340E+01  1.524535019E+02  1.250000000E+02  0.00000E+00  9.000E+00
      25     1     1     2     0     0  1.736892539E+01  8.031766823E+01 -2.752819432E+02  3.133013815E+02  1.250000000E+02  0.00000E+00  9.000E+00
      21     1     1     2   512   502 -7.066142069E+00 -2.413546810E+00  5.922940155E+00  9.530833753E+00  8.429369702E-08  0.00000E+00  9.000E+00
#rwgt            1           1   3.8406511668558962E-002           8      318981           0
</event>
<event>
      5   9999  3.79277E-02  1.14932E+02 -1.00000E+00  1.21169E-01
      21    -1     0     0   502   511  0.000000000E+00  0.000000000E+00  2.059415039E+02  2.059415039E+02  0.000000000E+00  0.00000E+00  9.000E+00
      21    -1     0     0   501   502  0.000000000E+00  0.000000000E+00 -7.002642818E+02  7.002642818E+02  0.000000000E+00  0.00000E+00  9.000E+00
      25     1     1     2     0     0  8.492242639E+01 -1.512353231E+01 -5.436917042E+02  5.645052781E+02  1.250000000E+02  0.00000E+00  9.000E+00
      25     1     1     2     0     0 -1.317900890E+02  1.200655621E+02  2.973560129E+00  2.177572245E+02  1.250000000E+02  0.00000E+00  9.000E+00
      21     1     1     2   501   511  4.686766264E+01 -1.049420298E+02  4.639536625E+01  1.239432831E+02  1.168007728E-06  0.00000E+00  9.000E+00
#rwgt            1           1   4.8817425726246380E-002           8      319201           0
</event>
<event>
      5   9999  3.79277E-02  3.82763E+01 -1.00000E+00  1.46037E-01
      21    -1     0     0   502   501  0.000000000E+00  0.000000000E+00  2.440895194E+02  2.440895194E+02  0.000000000E+00  0.00000E+00  9.000E+00
       2    -1     0     0   501     0  0.000000000E+00  0.000000000E+00 -2.298672453E+03  2.298672453E+03  0.000000000E+00  0.00000E+00  9.000E+00
      25     1     1     2     0     0 -4.841728221E+01  1.477535305E+02  8.542690424E+01  2.170209551E+02  1.250000000E+02  0.00000E+00  9.000E+00
      25     1     1     2     0     0  8.666672204E+01 -1.491875796E+02 -2.973771601E+01  2.151217943E+02  1.250000000E+02  0.00000E+00  9.000E+00
       2     1     1     2   502     0 -3.824943983E+01  1.434049096E+00 -2.110272121E+03  2.110619223E+03  4.315837288E-05  0.00000E+00  9.000E+00
#rwgt            1           1   4.1789626851869335E-002           8      319283           0
</event>
<event>
      5   9999  3.79277E-02  1.35566E+01 -1.00000E+00  1.81626E-01
      21    -1     0     0   502   501  0.000000000E+00  0.000000000E+00  1.065382844E+02  1.065382844E+02  0.000000000E+00  0.00000E+00  9.000E+00
      21    -1     0     0   511   502  0.000000000E+00  0.000000000E+00 -4.927766812E+02  4.927766812E+02  0.000000000E+00  0.00000E+00  9.000E+00
      25     1     1     2     0     0 -1.175190639E+02 -2.518209345E+01 -3.656997023E+02  4.047297129E+02  1.250000000E+02  0.00000E+00  9.000E+00
      25     1     1     2     0     0  1.041465563E+02  2.295566754E+01  6.390413504E+00  1.644363258E+02  1.250000000E+02  0.00000E+00  9.000E+00
      21     1     1     2   511   501  1.337250761E+01  2.226425914E+00 -2.692910800E+01  3.014892685E+01  4.768371582E-07  0.00000E+00  9.000E+00
#rwgt            1           1   2.2166614456834488E-002           8      319348           0
</event>
<event>
      5   9999  3.79277E-02  6.92234E+01 -1.00000E+00  1.31467E-01
      21    -1     0     0   502   512  0.000000000E+00  0.000000000E+00  9.570230344E+01  9.570230344E+01  0.000000000E+00  0.00000E+00  9.000E+00
      21    -1     0     0   501   502  0.000000000E+00  0.000000000E+00 -3.071818492E+03  3.071818492E+03  0.000000000E+00  0.00000E+00  9.000E+00
      25     1     1     2     0     0 -1.938661028E+02  2.232716314E+02 -7.580995622E+02  8.232704497E+02  1.250000000E+02  0.00000E+00  9.000E+00
      25     1     1     2     0     0  2.600580442E+02 -2.030105865E+02 -2.243060292E+03  2.270636025E+03  1.250000000E+02  0.00000E+00  9.000E+00
      21     1     1     2   501   512 -6.619194137E+01 -2.026104490E+01  2.504366552E+01  7.361432079E+01  4.370284743E-06  0.00000E+00  9.000E+00
#rwgt            1           1   6.2495750981385753E-002           8      319601           0
</event>
<event>
      5   9999  3.79277E-02  2.40251E+01 -1.00000E+00  1.60056E-01
      21    -1     0     0   502   501  0.000000000E+00  0.000000000E+00  1.264271324E+03  1.264271324E+03  0.000000000E+00  0.00000E+00  9.000E+00
      21    -1     0     0   501   511  0.000000000E+00  0.000000000E+00 -9.799406086E+01  9.799406086E+01  0.000000000E+00  0.00000E+00  9.000E+00
      25     1     1     2     0     0  1.574232551E+02  7.240717811E+01  5.483157919E+02  5.884726743E+02  1.250000000E+02  0.00000E+00  9.000E+00
      25     1     1     2     0     0 -1.513640157E+02 -9.565561427E+01  6.763104566E+02  7.106911393E+02  1.250000000E+02  0.00000E+00  9.000E+00
      21     1     1     2   502   511 -6.059239438E+00  2.324843616E+01 -5.834898554E+01  6.310157113E+01  1.784161275E-06  0.00000E+00  9.000E+00
#rwgt            1           1   4.3840363495886811E-002           8      319782           0
</event>
<event>
      5   9999  3.79277E-02  7.43260E+01 -1.00000E+00  1.29915E-01
       1    -1     0     0   502     0  0.000000000E+00  0.000000000E+00  1.689949699E+03  1.689949699E+03  0.000000000E+00  0.00000E+00  9.000E+00
      21    -1     0     0   501   502  0.000000000E+00  0.000000000E+00 -5.062102382E+01  5.062102382E+01  0.000000000E+00  0.00000E+00  9.000E+00
      25     1     1     2     0     0 -8.528047733E+01  1.211047755E+02  2.745156271E+02  3.360401107E+02  1.250000000E+02  0.00000E+00  9.000E+00
      25     1     1     2     0     0  1.203140988E+02 -1.866563137E+02  9.790045747E+02  1.011627905E+03  1.250000000E+02  0.00000E+00  9.000E+00
       1     1     1     2   501     0 -3.503362146E+01  6.555153821E+01  3.858084732E+02  3.929027066E+02  0.000000000E+00  0.00000E+00  9.000E+00
#rwgt            1           1   4.5428401944199781E-002           8      320005           0
</event>
<event>
      5   9999  3.79277E-02  9.74424E+01 -1.00000E+00  1.24336E-01
      21    -1     0     0   502   501  0.000000000E+00  0.000000000E+00  9.644331847E+02  9.644331847E+02  0.000000000E+00  0.00000E+00  9.000E+00
      -5    -1     0     0     0   502  0.000000000E+00  0.000000000E+00 -8.933554695E+02  8.933554695E+02  0.000000000E+00  0.00000E+00  9.000E+00
      25     1     1     2     0     0  1.032560894E+02 -6.956598932E+01  2.774534153E+02  3.287957490E+02  1.250000000E+02  0.00000E+00  9.000E+00
      25     1     1     2     0     0 -5.613502492E+01 -1.572547590E+01  6.513281914E+02  6.657716159E+02  1.250000000E+02  0.00000E+00  9.000E+00
      -5     1     1     2     0   501 -4.712106450E+01  8.529146522E+01 -8.577038915E+02  8.632212893E+02  1.078959322E-05  0.00000E+00  9.000E+00
#rwgt            1           1   5.8335228121755456E-002           8      320146           0
</event>
<event>
      5   9999  3.79277E-02  3.30254E+01 -1.00000E+00  1.50197E-01
      21    -1     0     0   502   501  0.000000000E+00  0.000000000E+00  5.203026047E+02  5.203026047E+02  0.000000000E+00  0.00000E+00  9.000E+00
      21    -1     0     0   511   502  0.000000000E+00  0.000000000E+00 -4.735970726E+02  4.735970726E+02  0.000000000E+00  0.00000E+00  9.000E+00
      25     1     1     2     0     0  1.193162761E+02 -1.905912323E+02  2.758916967E+02  3.772301948E+02  1.250000000E+02  0.00000E+00  9.000E+00
      25     1     1     2     0     0 -1.433872260E+02  1.679799601E+02  1.094893551E+02  2.763875584E+02  1.250000000E+02  0.00000E+00  9.000E+00
      21     1     1     2   511   501  2.407094991E+01  2.261127223E+01 -3.386755196E+02  3.402819241E+02  3.814697266E-06  0.00000E+00  9.000E+00
#rwgt            2          11   3.1254973202343743E-003           8      320234           0
</event>
<event>
      5   9999  3.79277E-02  4.14566E+01 -1.00000E+00  1.43883E-01
      21    -1     0     0   502   512  0.000000000E+00  0.000000000E+00  6.419734005E+02  6.419734005E+02  0.000000000E+00  0.00000E+00  9.000E+00
      21    -1     0     0   501   502  0.000000000E+00  0.000000000E+00 -1.512927574E+02  1.512927574E+02  0.000000000E+00  0.00000E+00  9.000E+00
      25     1     1     2     0     0 -2.334859093E+02 -1.288791156E+02  2.246297549E+02  3.704173633E+02  1.250000000E+02  0.00000E+00  9.000E+00
      25     1     1     2     0     0  2.024338205E+02  1.563458010E+02  2.131670591E+02  3.556524374E+02  1.250000000E+02  0.00000E+00  9.000E+00
      21     1     1     2   501   512  3.105208882E+01 -2.746668541E+01  5.288382908E+01  6.719635708E+01  9.536743164E-07  0.00000E+00  9.000E+00
#rwgt            1           1   2.8850008217781876E-002           8      320254           0
</event>
<event>
      5   9999  3.79277E-02  1.21050E+02 -1.00000E+00  1.20208E-01
      21    -1     0     0   502   511  0.000000000E+00  0.000000000E+00  8.381442532E+02  8.381442532E+02  0.000000000E+00  0.00000E+00  9.000E+00
      21    -1     0     0   501   502  0.000000000E+00  0.000000000E+00 -2.274493323E+02  2.274493323E+02  0.000000000E+00  0.00000E+00  9.000E+00
      25     1     1     2     0     0 -3.905912179E+01  2.176464109E+01 -1.084652809E+02  1.714322949E+02  1.250000000E+02  0.00000E+00  9.000E+00
      25     1     1     2     0     0  4.588009180E+01 -1.426224555E+02  3.359268544E+01  1.979889294E+02  1.250000000E+02  0.00000E+00  9.000E+00
      21     1     1     2   501   511 -6.820970010E+00  1.208578144E+02  6.855675164E+02  6.961723612E+02  1.321449896E-05  0.00000E+00  9.000E+00
#rwgt            1           1   5.1834514158397280E-002           8      320390           0
</event>
<event>
      5   9999  3.79277E-02  3.66500E+01 -1.00000E+00  1.47236E-01
      21    -1     0     0   502   512  0.000000000E+00  0.000000000E+00  5.936252998E+02  5.936252998E+02  0.000000000E+00  0.00000E+00  9.000E+00
      21    -1     0     0   501   502  0.000000000E+00  0.000000000E+00 -4.964375040E+02  4.964375040E+02  0.000000000E+00  0.00000E+00  9.000E+00
      25     1     1     2     0     0 -3.775046983E+02  1.589935844E+02  2.425428093E+02  4.921796130E+02  1.250000000E+02  0.00000E+00  9.000E+00
      25     1     1     2     0     0  4.091394526E+02 -1.404877794E+02 -2.300139348E+02  5.056316031E+02  1.250000000E+02  0.00000E+00  9.000E+00
      21     1     1     2   501   512 -3.163475430E+01 -1.850580505E+01  8.465892129E+01  9.225158782E+01  0.000000000E+00  0.00000E+00  9.000E+00
#rwgt            1           1   9.0767148969701963E-002           8      320464           0
</event>
<event>
      5   9999  3.79277E-02  5.77504E+01 -1.00000E+00  1.35596E-01
      21    -1     0     0   502   511  0.000000000E+00  0.000000000E+00  3.112472263E+02  3.112472263E+02  0.000000000E+00  0.00000E+00  9.000E+00
      21    -1     0     0   501   502  0.000000000E+00  0.000000000E+00 -1.611286931E+02  1.611286931E+02  0.000000000E+00  0.00000E+00  9.000E+00
      25     1     1     2     0     0  1.758167175E+01  1.118529942E+01 -9.333834866E+01  1.573889241E+02  1.250000000E+02  0.00000E+00  9.000E+00
      25     1     1     2     0     0 -5.723540162E+01  3.079914410E+01  1.878878991E+02  2.348432267E+02  1.250000000E+02  0.00000E+00  9.000E+00
      21     1     1     2   501   511  3.965372988E+01 -4.198444352E+01  5.556898273E+01  8.014376852E+01  1.348699152E-06  0.00000E+00  9.000E+00
#rwgt            1           1   4.5917336578250499E-002           8      320650           0
</event>
<event>
      5   9999  3.79277E-02  1.11339E+02 -1.00000E+00  1.21766E-01
      21    -1     0     0   502   512  0.000000000E+00  0.000000000E+00  7.182635065E+02  7.182635065E+02  0.000000000E+00  0.00000E+00  9.000E+00
      21    -1     0     0   501   502  0.000000000E+00  0.000000000E+00 -9.540477326E+01  9.540477326E+01  0.000000000E+00  0.00000E+00  9.000E+00
      25     1     1     2     0     0  1.576560549E+02 -2.971781873E+01  2.636413135E+02  3.329719547E+02  1.250000000E+02  0.00000E+00  9.000E+00
      25     1     1     2     0     0 -9.338454722E+01  1.206324558E+02  1.664091243E+02  2.580501108E+02  1.250000000E+02  0.00000E+00  9.000E+00
      21     1     1     2   501   512 -6.427150768E+01 -9.091463707E+01  1.928082954E+02  2.226462143E+02  4.672030912E-06  0.00000E+00  9.000E+00
#rwgt            1           1   3.7136704652054771E-002           8      320748           0
</event>
<event>
      5   9999  3.79277E-02  9.36550E+01 -1.00000E+00  1.25122E-01
      21    -1     0     0   502   501  0.000000000E+00  0.000000000E+00  2.191623652E+02  2.191623652E+02  0.000000000E+00  0.00000E+00  9.000E+00
       2    -1     0     0   501     0  0.000000000E+00  0.000000000E+00 -8.364926505E+02  8.364926505E+02  0.000000000E+00  0.00000E+00  9.000E+00
      25     1     1     2     0     0 -1.745092259E+02 -1.049133746E+02 -9.662316479E+01  2.577233440E+02  1.250000000E+02  0.00000E+00  9.000E+00
      25     1     1     2     0     0  1.882747646E+02  1.227552419E+01  3.967580660E+01  2.297765112E+02  1.250000000E+02  0.00000E+00  9.000E+00
       2     1     1     2   502     0 -1.376553869E+01  9.263785043E+01 -5.603829271E+02  5.681551605E+02  0.000000000E+00  0.00000E+00  9.000E+00
#rwgt            1           1   3.3340830940154907E-002           8      320919           0
</event>
<event>
      5   9999  3.79277E-02  4.15999E+01 -1.00000E+00  1.43792E-01
      21    -1     0     0   502   511  0.000000000E+00  0.000000000E+00  3.491718832E+02  3.491718832E+02  0.000000000E+00  0.00000E+00  9.000E+00
      21    -1     0     0   501   502  0.000000000E+00  0.000000000E+00 -2.890284596E+02  2.890284596E+02  0.000000000E+00  0.00000E+00  9.000E+00
      25     1     1     2     0     0  4.497153941E+01 -8.850726420E+01  2.504552088E+02  2.969996411E+02  1.250000000E+02  0.00000E+00  9.000E+00
      25     1     1     2     0     0 -6.122923685E+01  1.267987680E+02 -2.203882091E+02  2.898670552E+02  1.250000000E+02  0.00000E+00  9.000E+00
      21     1     1     2   501   511  1.625769744E+01 -3.829150379E+01  3.007642383E+01  5.133364646E+01  9.536743164E-07  0.00000E+00  9.000E+00
#rwgt            2          11   4.1279888847729537E-003           8      321020           0
</event>
<event>
      5   9999  3.79277E-02  2.10803E+01 -1.00000E+00  1.64506E-01
      21    -1     0     0   502   501  0.000000000E+00  0.000000000E+00  1.101238265E+03  1.101238265E+03  0.000000000E+00  0.00000E+00  9.000E+00
      21    -1     0     0   501   512  0.000000000E+00  0.000000000E+00 -6.659493492E+01  6.659493492E+01  0.000000000E+00  0.00000E+00  9.000E+00
      25     1     1     2     0     0  9.207247393E+01  1.250095253E+02  4.388891909E+02  4.820305423E+02  1.250000000E+02  0.00000E+00  9.000E+00
      25     1     1     2     0     0 -9.287985171E+01 -1.039446794E+02  6.234722974E+02  6.509791617E+02  1.250000000E+02  0.00000E+00  9.000E+00
      21     1     1     2   502   512  8.073777890E-01 -2.106484585E+01 -2.771815811E+01  3.482349607E+01  8.920806376E-07  0.00000E+00  9.000E+00
#rwgt            1           1   3.0698635820656094E-002           8      321055           0
</event>
<event>
      5   9999  3.79277E-02  1.24702E+02 -1.00000E+00  1.19664E-01
      21    -1     0     0   502   511  0.000000000E+00  0.000000000E+00  3.399139676E+02  3.399139676E+02  0.000000000E+00  0.00000E+00  9.000E+00
      21    -1     0     0   501   502  0.000000000E+00  0.000000000E+00 -5.016928434E+02  5.016928434E+02  0.000000000E+00  0.00000E+00  9.000E+00
      25     1     1     2     0     0  1.623014446E+02 -5.888321891E+01  5.190469511E+01  2.193811518E+02  1.250000000E+02  0.00000E+00  9.000E+00
      25     1     1     2     0     0 -8.047157499E+01 -3.521548398E+01 -3.827672226E+02  4.121305029E+02  1.250000000E+02  0.00000E+00  9.000E+00
      21     1     1     2   501   511 -8.182986961E+01  9.409870288E+01  1.690836517E+02  2.100951564E+02  1.907348633E-06  0.00000E+00  9.000E+00
#rwgt            1           1   4.8610943375959309E-002           8      321303           0
</event>
<event>
      5   9999  3.79277E-02  4.09066E+01 -1.00000E+00  1.44239E-01
      21    -1     0     0   502   501  0.000000000E+00  0.000000000E+00  8.151946981E+02  8.151946981E+02  0.000000000E+00  0.00000E+00  9.000E+00
      21    -1     0     0   501   512  0.000000000E+00  0.000000000E+00 -1.958614118E+02  1.958614118E+02  0.000000000E+00  0.00000E+00  9.000E+00
      25     1     1     2     0     0 -1.810989796E+02 -2.337847729E+02  4.438841652E+02  5.478232494E+02  1.250000000E+02  0.00000E+00  9.000E+00
      25     1     1     2     0     0  2.162072734E+02  2.547789287E+02  2.061886352E+02  4.120638796E+02  1.250000000E+02  0.00000E+00  9.000E+00
      21     1     1     2   502   512 -3.510829385E+01 -2.099415582E+01 -3.073951416E+01  5.116898090E+01  8.259061849E-07  0.00000E+00  9.000E+00
#rwgt            1           1   1.3121328834833221E-002           8      321517           0
</event>
<event>
      5   9999  3.79277E-02  1.61727E+02 -1.00000E+00  1.15113E-01
      21    -1     0     0   502   501  0.000000000E+00  0.000000000E+00  4.842173355E+02  4.842173355E+02  0.000000000E+00  0.00000E+00  9.000E+00
      -1    -1     0     0     0   502  0.000000000E+00  0.000000000E+00 -6.279293931E+02  6.279293931E+02  0.000000000E+00  0.00000E+00  9.000E+00
      25     1     1     2     0     0 -1.825130824E+02 -2.214933705E+02  1.184692304E+02  3.347092724E+02  1.250000000E+02  0.00000E+00  9.000E+00
      25     1     1     2     0     0  1.569219168E+02  6.180403320E+01  1.986707755E+02  2.890316653E+02  1.250000000E+02  0.00000E+00  9.000E+00
      -1     1     1     2     0   501  2.559116563E+01  1.596893373E+02 -4.608520635E+02  4.884057910E+02  5.394796609E-06  0.00000E+00  9.000E+00
#rwgt            2          10   1.2024851866722201E-004           8      321739           0
</event>
<event>
      5   9999  3.79277E-02  1.22141E+02 -1.00000E+00  1.20043E-01
      21    -1     0     0   502   501  0.000000000E+00  0.000000000E+00  1.127461131E+02  1.127461131E+02  0.000000000E+00  0.00000E+00  9.000E+00
      21    -1     0     0   511   502  0.000000000E+00  0.000000000E+00 -1.376916968E+03  1.376916968E+03  0.000000000E+00  0.00000E+00  9.000E+00
      25     1     1     2     0     0  2.479395713E+02  4.701897916E+01 -3.820000147E+02  4.745880600E+02  1.250000000E+02  0.00000E+00  9.000E+00
      25     1     1     2     0     0 -1.607625414E+02  3.852979719E+01 -1.125892315E+02  2.358611351E+02  1.250000000E+02  0.00000E+00  9.000E+00
      21     1     1     2   511   501 -8.717702990E+01 -8.554877635E+01 -7.695816088E+02  7.792138861E+02  0.000000000E+00  0.00000E+00  9.000E+00
#rwgt            1           1   3.8570210964904435E-002           8      321758           0
</event>
<event>
      5   9999  3.79277E-02  2.69228E+01 -1.00000E+00  1.56378E-01
      21    -1     0     0   502   501  0.000000000E+00  0.000000000E+00  1.300542124E+02  1.300542124E+02  0.000000000E+00  0.00000E+00  9.000E+00
      21    -1     0     0   501   512  0.000000000E+00  0.000000000E+00 -3.251991257E+02  3.251991257E+02  0.000000000E+00  0.00000E+00  9.000E+00
      25     1     1     2     0     0 -9.597872892E+01 -1.795128320E+01  3.239652647E+01  1.618910124E+02  1.250000000E+02  0.00000E+00  9.000E+00
      25     1     1     2     0     0  8.491605185E+01  4.249624555E+01 -2.053225841E+02  2.584550837E+02  1.250000000E+02  0.00000E+00  9.000E+00
      21     1     1     2   502   512  1.106267708E+01 -2.454496235E+01 -2.221885567E+01  3.490724205E+01  5.331201500E-07  0.00000E+00  9.000E+00
#rwgt            1           1   4.1568935427420385E-002           8      321850           0
</event>
<event>
      5   9999  3.79277E-02  1.17349E+02 -1.00000E+00  1.20782E-01
      21    -1     0     0   502   501  0.000000000E+00  0.000000000E+00  3.941307083E+02  3.941307083E+02  0.000000000E+00  0.00000E+00  9.000E+00
      21    -1     0     0   511   502  0.000000000E+00  0.000000000E+00 -1.125893959E+02  1.125893959E+02  0.000000000E+00  0.00000E+00  9.000E+00
      25     1     1     2     0     0 -3.949571192E+01 -2.890037984E+01  9.847998018E+01  1.664885873E+02  1.250000000E+02  0.00000E+00  9.000E+00
      25     1     1     2     0     0 -5.915946584E+01  9.244497210E+01  1.315429715E+02  2.120718478E+02  1.250000000E+02  0.00000E+00  9.000E+00
      21     1     1     2   511   501  9.865517775E+01 -6.354459227E+01  5.151836069E+01  1.281596691E+02  2.132480600E-06  0.00000E+00  9.000E+00
#rwgt            1           1   4.3324693336452114E-002           8      322021           0
</event>
<event>
      5   9999  3.79277E-02  1.48498E+02 -1.00000E+00  1.16567E-01
      21    -1     0     0   512   501  0.000000000E+00  0.000000000E+00  1.558651192E+02  1.558651192E+02  0.000000000E+00  0.00000E+00  9.000E+00
      21    -1     0     0   501   502  0.000000000E+00  0.000000000E+00 -1.163502342E+03  1.163502342E+03  0.000000000E+00  0.00000E+00  9.000E+00
      25     1     1     2     0     0  3.519159458E+01 -2.626883384E+02 -6.949696743E+01  3.011618169E+02  1.250000000E+02  0.00000E+00  9.000E+00
      25     1     1     2     0     0 -3.036448892E+01  1.142687784E+02 -7.897437948E+02  8.082695202E+02  1.250000000E+02  0.00000E+00  9.000E+00
      21     1     1     2   512   502 -4.827105658E+00  1.484195600E+02 -1.483964608E+02  2.099361243E+02  0.000000000E+00  0.00000E+00  9.000E+00
#rwgt            2          11   3.3681799291682959E-003           8      322175           0
</event>
<event>
      5   9999  3.79277E-02  2.27945E+01 -1.00000E+00  1.61815E-01
      21    -1     0     0   502   501  0.000000000E+00  0.000000000E+00  1.516014072E+03  1.516014072E+03  0.000000000E+00  0.00000E+00  9.000E+00
       1    -1     0     0   501     0  0.000000000E+00  0.000000000E+00 -4.244908116E+01  4.244908116E+01  0.000000000E+00  0.00000E+00  9.000E+00
      25     1     1     2     0     0  4.806302955E+00  8.370416750E+01  1.109221222E+03  1.119386532E+03  1.250000000E+02  0.00000E+00  9.000E+00
      25     1     1     2     0     0  1.251938818E+01 -9.851665714E+01  3.794934637E+02  4.117068809E+02  1.250000000E+02  0.00000E+00  9.000E+00
       1     1     1     2   502     0 -1.732569114E+01  1.481248964E+01 -1.514969504E+01  2.736974027E+01  1.105501472E-06  0.00000E+00  9.000E+00
#rwgt            1           1   1.6603828470914270E-002           8      322255           0
</event>
<event>
      5   9999  3.79277E-02  8.74835E+01 -1.00000E+00  1.26498E-01
      21    -1     0     0   502   501  0.000000000E+00  0.000000000E+00  1.818367475E+02  1.818367475E+02  0.000000000E+00  0.00000E+00  9.000E+00
      21    -1     0     0   501   511  0.000000000E+00  0.000000000E+00 -9.654735730E+02  9.654735730E+02  0.000000000E+00  0.00000E+00  9.000E+00
      25     1     1     2     0     0 -1.474503913E+02 -1.666495776E+02 -4.434588228E+01  2.590468237E+02  1.250000000E+02  0.00000E+00  9.000E+00
      25     1     1     2     0     0  1.136830281E+02  8.594565012E+01 -5.357815880E+01  1.969926515E+02  1.250000000E+02  0.00000E+00  9.000E+00
      21     1     1     2   502   511  3.376736316E+01  8.070392745E+01 -6.857127845E+02  6.912708452E+02  1.321449896E-05  0.00000E+00  9.000E+00
#rwgt            1           1   3.4929369217189379E-002           8      322378           0
</event>
<event>
      5   9999  3.79277E-02  1.02646E+02 -1.00000E+00  1.23320E-01
      21    -1     0     0   502   512  0.000000000E+00  0.000000000E+00  1.932864946E+02  1.932864946E+02  0.000000000E+00  0.00000E+00  9.000E+00
      21    -1     0     0   501   502  0.000000000E+00  0.000000000E+00 -4.860493242E+02  4.860493242E+02  0.000000000E+00  0.00000E+00  9.000E+00
      25     1     1     2     0     0  1.819459892E+02 -1.458343705E+02 -8.687275638E+01  2.784670221E+02  1.250000000E+02  0.00000E+00  9.000E+00
      25     1     1     2     0     0 -1.857345195E+02  4.325804000E+01 -1.903969420E+02  2.970598682E+02  1.250000000E+02  0.00000E+00  9.000E+00
      21     1     1     2   501   512  3.788530315E+00  1.025763305E+02 -1.549313120E+01  1.038089285E+02  1.092571186E-06  0.00000E+00  9.000E+00
#rwgt            1           1   3.8663636639355320E-002           8      322426           0
</event>
<event>
      5   9999  3.79277E-02  4.99142E+01 -1.00000E+00  1.39118E-01
      21    -1     0     0   502   501  0.000000000E+00  0.000000000E+00  2.668103635E+03  2.668103635E+03  0.000000000E+00  0.00000E+00  9.000E+00
      21    -1     0     0   511   502  0.000000000E+00  0.000000000E+00 -3.552134305E+01  3.552134305E+01  0.000000000E+00  0.00000E+00  9.000E+00
      25     1     1     2     0     0 -1.867032378E+02  1.866701197E+01  1.958827012E+03  1.971759321E+03  1.250000000E+02  0.00000E+00  9.000E+00
      25     1     1     2     0     0  1.431486920E+02 -4.304796911E+01  6.460106382E+02  6.747587868E+02  1.250000000E+02  0.00000E+00  9.000E+00
      21     1     1     2   511   501  4.355454583E+01  2.438095714E+01  2.774464220E+01  5.710687090E+01  2.800784141E-06  0.00000E+00  9.000E+00
#rwgt            1           1   6.8847201697103469E-002           8      322543           0
</event>
<event>
      5   9999  3.79277E-02  2.75601E+01 -1.00000E+00  1.55643E-01
      21    -1     0     0   502   501  0.000000000E+00  0.000000000E+00  1.606177639E+03  1.606177639E+03  0.000000000E+00  0.00000E+00  9.000E+00
      21    -1     0     0   501   512  0.000000000E+00  0.000000000E+00 -2.334462813E+02  2.334462813E+02  0.000000000E+00  0.00000E+00  9.000E+00
      25     1     1     2     0     0 -1.103737751E+02 -4.645911673E+00  4.171560627E+02  4.492751222E+02  1.250000000E+02  0.00000E+00  9.000E+00
      25     1     1     2     0     0  9.483486096E+01 -1.811590364E+01  1.166745496E+03  1.177387740E+03  1.250000000E+02  0.00000E+00  9.000E+00
      21     1     1     2   502   512  1.553891414E+01  2.276181531E+01 -2.111702017E+02  2.129610579E+02  5.394796609E-06  0.00000E+00  9.000E+00
#rwgt            1           1   4.2410749583053881E-002           8      322669           0
</event>
<event>
      5   9999  3.79277E-02  1.62289E+01 -1.00000E+00  1.74221E-01
      21    -1     0     0   502   501  0.000000000E+00  0.000000000E+00  1.101885957E+02  1.101885957E+02  0.000000000E+00  0.00000E+00  9.000E+00
       2    -1     0     0   501     0  0.000000000E+00  0.000000000E+00 -3.640622655E+02  3.640622655E+02  0.000000000E+00  0.00000E+00  9.000E+00
      25     1     1     2     0     0  1.537929021E+01 -9.324465589E+00 -2.825515370E+02  3.094896432E+02  1.250000000E+02  0.00000E+00  9.000E+00
      25     1     1     2     0     0 -3.053685588E+01  3.525714526E+00  4.988897533E+01  1.380537580E+02  1.250000000E+02  0.00000E+00  9.000E+00
       2     1     1     2   502     0  1.515756567E+01  5.798751063E+00 -2.121110811E+01  2.670745997E+01  2.384185791E-07  0.00000E+00  9.000E+00
#rwgt            1           1   4.2268472807565259E-002           8      322838           0
</event>
<event>
      5   9999  3.79277E-02  4.09670E+01 -1.00000E+00  1.44200E-01
      21    -1     0     0   511   501  0.000000000E+00  0.000000000E+00  2.045291626E+01  2.045291626E+01  0.000000000E+00  0.00000E+00  9.000E+00
      21    -1     0     0   501   502  0.000000000E+00  0.000000000E+00 -2.342022004E+03  2.342022004E+03  0.000000000E+00  0.00000E+00  9.000E+00
      25     1     1     2     0     0 -6.383927010E+01 -8.301810877E+01 -1.509067004E+03  1.517852325E+03  1.250000000E+02  0.00000E+00  9.000E+00
      25     1     1     2     0     0  6.804929155E+01  1.237682451E+02 -6.328383698E+02  6.603473986E+02  1.250000000E+02  0.00000E+00  9.000E+00
      21     1     1     2   511   502 -4.210021449E+00 -4.075013635E+01 -1.796637149E+02  1.842751973E+02  2.697398305E-06  0.00000E+00  9.000E+00
#rwgt            1           1   9.0614680660684468E-002           8      323148           0
</event>
<event>
      5   9999  3.79277E-02  4.35798E+01 -1.00000E+00  1.42569E-01
      21    -1     0     0   502   501  0.000000000E+00  0.000000000E+00  1.136074399E+03  1.136074399E+03  0.000000000E+00  0.00000E+00  9.000E+00
      21    -1     0     0   512   502  0.000000000E+00  0.000000000E+00 -1.826936060E+02  1.826936060E+02  0.000000000E+00  0.00000E+00  9.000E+00
      25     1     1     2     0     0 -4.447694169E+01  6.296958397E+01  6.572347947E+02  6.734433475E+02  1.250000000E+02  0.00000E+00  9.000E+00
      25     1     1     2     0     0  7.478556251E+01 -9.428389227E+01  4.516477707E+02  4.838316252E+02  1.250000000E+02  0.00000E+00  9.000E+00
      21     1     1     2   512   501 -3.030862082E+01  3.131430830E+01 -1.555017722E+02  1.614930325E+02  1.907348633E-06  0.00000E+00  9.000E+00
#rwgt            2          11   6.9011299393765668E-003           8      323288           0
</event>
<event>
      5   9999  3.79277E-02  2.81180E+01 -1.00000E+00  1.55020E-01
      21    -1     0     0   502   501  0.000000000E+00  0.000000000E+00  1.764621107E+02  1.764621107E+02  0.000000000E+00  0.00000E+00  9.000E+00
      21    -1     0     0   511   502  0.000000000E+00  0.000000000E+00 -3.423678066E+02  3.423678066E+02  0.000000000E+00  0.00000E+00  9.000E+00
      25     1     1     2     0     0 -1.472293823E+02 -4.512209684E+01  4.145518253E+01  2.026228684E+02  1.250000000E+02  0.00000E+00  9.000E+00
      25     1     1     2     0     0  1.385313054E+02  1.838329900E+01 -1.156730574E+02  2.203046174E+02  1.250000000E+02  0.00000E+00  9.000E+00
      21     1     1     2   511   501  8.698076881E+00  2.673879784E+01 -9.168782103E+01  9.590243155E+01  1.348699152E-06  0.00000E+00  9.000E+00
#rwgt            1           1   3.7405902147027714E-002           8      323308           0
</event>
<event>
      5   9999  3.79277E-02  1.59300E+01 -1.00000E+00  1.74957E-01
      21    -1     0     0   502   512  0.000000000E+00  0.000000000E+00  1.567447185E+03  1.567447185E+03  0.000000000E+00  0.00000E+00  9.000E+00
      21    -1     0     0   501   502  0.000000000E+00  0.000000000E+00 -4.878463443E+02  4.878463443E+02  0.000000000E+00  0.00000E+00  9.000E+00
      25     1     1     2     0     0  3.601442778E+01  4.958667660E+01 -1.260987396E+02  1.878344208E+02  1.250000000E+02  0.00000E+00  9.000E+00
      25     1     1     2     0     0 -5.189383422E+01 -4.831767912E+01 -3.152318010E+02  3.464443050E+02  1.250000000E+02  0.00000E+00  9.000E+00
      21     1     1     2   501   512  1.587940645E+01 -1.268997477E+00  1.520931381E+03  1.521014804E+03  0.000000000E+00  0.00000E+00  9.000E+00
#rwgt            1           1   9.9288850954115049E-002           8      323519           0
</event>
<event>
      5   9999  3.79277E-02  1.70495E+01 -1.00000E+00  1.72299E-01
      21    -1     0     0   511   501  0.000000000E+00  0.000000000E+00  4.160183696E+02  4.160183696E+02  0.000000000E+00  0.00000E+00  9.000E+00
      21    -1     0     0   501   502  0.000000000E+00  0.000000000E+00 -3.905194938E+02  3.905194938E+02  0.000000000E+00  0.00000E+00  9.000E+00
      25     1     1     2     0     0  5.735978437E+01 -8.059335014E+01 -6.888225556E+00  1.595552588E+02  1.250000000E+02  0.00000E+00  9.000E+00
      25     1     1     2     0     0 -4.268885673E+01  8.927943566E+01 -2.863758261E+02  3.277640461E+02  1.250000000E+02  0.00000E+00  9.000E+00
      21     1     1     2   511   502 -1.467092765E+01 -8.686085522E+00  3.187629275E+02  3.192185586E+02  5.394796609E-06  0.00000E+00  9.000E+00
#rwgt            1           1   2.6188557119494575E-002           8      323814           0
</event>
<event>
      5   9999  3.79277E-02  4.73371E+01 -1.00000E+00  1.40445E-01
      21    -1     0     0   502   501  0.000000000E+00  0.000000000E+00  4.066975575E+01  4.066975575E+01  0.000000000E+00  0.00000E+00  9.000E+00
      21    -1     0     0   501   512  0.000000000E+00  0.000000000E+00 -1.233146641E+03  1.233146641E+03  0.000000000E+00  0.00000E+00  9.000E+00
      25     1     1     2     0     0 -1.094766923E+02  1.222333404E+02 -6.024838726E+02  6.368186181E+02  1.250000000E+02  0.00000E+00  9.000E+00
      25     1     1     2     0     0  8.266160366E+01 -8.322364206E+01 -3.213046062E+02  3.641713406E+02  1.250000000E+02  0.00000E+00  9.000E+00
      21     1     1     2   502   512  2.681508861E+01 -3.900969835E+01 -2.686884068E+02  2.728264384E+02  7.629394531E-06  0.00000E+00  9.000E+00
#rwgt            1           1   3.4855535642474740E-002           8      324085           0
</event>
<event>
      5   9999  3.79277E-02  1.13650E+02 -1.00000E+00  1.21379E-01
      21    -1     0     0   502   501  0.000000000E+00  0.000000000E+00  5.413398086E+02  5.413398086E+02  0.000000000E+00  0.00000E+00  9.000E+00
      21    -1     0     0   501   511  0.000000000E+00  0.000000000E+00 -4.637442263E+02  4.637442263E+02  0.000000000E+00  0.00000E+00  9.000E+00
      25     1     1     2     0     0  2.867187277E+02 -1.273082902E+02  5.195444306E+01  3.416713241E+02  1.250000000E+02  0.00000E+00  9.000E+00
      25     1     1     2     0     0 -3.589823639E+02  2.150249142E+02  1.794625781E+02  4.721608500E+02  1.250000000E+02  0.00000E+00  9.000E+00
      21     1     1     2   502   511  7.226363621E+01 -8.771662404E+01 -1.538214388E+02  1.912518609E+02  0.000000000E+00  0.00000E+00  9.000E+00
#rwgt            1           1  0.20466460981317425                8      324185           0
</event>
<event>
      5   9999  3.79277E-02  5.74979E+01 -1.00000E+00  1.35699E-01
       1    -1     0     0   502     0  0.000000000E+00  0.000000000E+00  1.768111909E+03  1.768111909E+03  0.000000000E+00  0.00000E+00  9.000E+00
      21    -1     0     0   501   502  0.000000000E+00  0.000000000E+00 -9.878743557E+01  9.878743557E+01  0.000000000E+00  0.00000E+00  9.000E+00
      25     1     1     2     0     0 -6.459427825E+01 -1.900909508E+02  1.463639631E+03  1.482623674E+03  1.250000000E+02  0.00000E+00  9.000E+00
      25     1     1     2     0     0  1.123642195E+02  1.580903413E+02  7.687251271E+01  2.432131926E+02  1.250000000E+02  0.00000E+00  9.000E+00
       1     1     1     2   501     0 -4.776994128E+01  3.200060943E+01  1.288123297E+02  1.410624775E+02  1.907348633E-06  0.00000E+00  9.000E+00
#rwgt            1           1   6.2626410071637148E-002           8      324275           0
</event>
<event>
      5   9999  3.79277E-02  6.53893E+01 -1.00000E+00  1.32737E-01
      -1    -1     0     0     0   501  0.000000000E+00  0.000000000E+00  3.758984715E+02  3.758984715E+02  0.000000000E+00  0.00000E+00  9.000E+00
      21    -1     0     0   501   502  0.000000000E+00  0.000000000E+00 -2.274879868E+02  2.274879868E+02  0.000000000E+00  0.00000E+00  9.000E+00
      25     1     1     2     0     0 -1.721521514E+01  9.189023301E+01 -1.519842737E+02  2.178632553E+02  1.250000000E+02  0.00000E+00  9.000E+00
      25     1     1     2     0     0  4.600696548E+01 -3.318082772E+01  2.879013742E+02  3.189511082E+02  1.250000000E+02  0.00000E+00  9.000E+00
      -1     1     1     2     0   502 -2.879175034E+01 -5.870940528E+01  1.249338425E+01  6.657209481E+01  7.907449699E-07  0.00000E+00  9.000E+00
#rwgt            1           1   4.6620489536368465E-002           8      324458           0
</event>
<event>
      5   9999  3.79277E-02  4.10534E+01 -1.00000E+00  1.44144E-01
      21    -1     0     0   502   511  0.000000000E+00  0.000000000E+00  1.236906389E+03  1.236906389E+03  0.000000000E+00  0.00000E+00  9.000E+00
      21    -1     0     0   501   502  0.000000000E+00  0.000000000E+00 -4.715780625E+01  4.715780625E+01  0.000000000E+00  0.00000E+00  9.000E+00
      25     1     1     2     0     0 -8.426177854E+01 -8.226877045E+01  1.534555469E+02  2.303080606E+02  1.250000000E+02  0.00000E+00  9.000E+00
      25     1     1     2     0     0  4.543040603E+01  6.894578005E+01  8.318811297E+02  8.452624778E+02  1.250000000E+02  0.00000E+00  9.000E+00
      21     1     1     2   501   511  3.883137251E+01  1.332299041E+01  2.044119059E+02  2.084936566E+02  4.672030912E-06  0.00000E+00  9.000E+00
#rwgt            1           1   4.9452770676396113E-002           8      324555           0
</event>
<event>
      5   9999  3.79277E-02  2.56955E+01 -1.00000E+00  1.57863E-01
      21    -1     0     0   502   501  0.000000000E+00  0.000000000E+00  6.050657426E+01  6.050657426E+01  0.000000000E+00  0.00000E+00  9.000E+00
      21    -1     0     0   501   512  0.000000000E+00  0.000000000E+00 -1.028058042E+03  1.028058042E+03  0.000000000E+00  0.00000E+00  9.000E+00
      25     1     1     2     0     0  3.589996374E+01  1.542736931E+02 -1.919774379E+02  2.785130454E+02  1.250000000E+02  0.00000E+00  9.000E+00
      25     1     1     2     0     0 -6.132504449E+01 -1.505557672E+02 -6.395776043E+02  6.716489500E+02  1.250000000E+02  0.00000E+00  9.000E+00
      21     1     1     2   502   512  2.542508076E+01 -3.717925919E+00 -1.359964254E+02  1.384026207E+02  2.697398305E-06  0.00000E+00  9.000E+00
#rwgt            1           1   3.9585995150384391E-002           8      324667           0
</event>
<event>
      5   9999  3.79277E-02  3.10014E+01 -1.00000E+00  1.52056E-01
      21    -1     0     0   502   511  0.000000000E+00  0.000000000E+00  7.023481843E+01  7.023481843E+01  0.000000000E+00  0.00000E+00  9.000E+00
      21    -1     0     0   501   502  0.000000000E+00  0.000000000E+00 -7.174391323E+02  7.174391323E+02  0.000000000E+00  0.00000E+00  9.000E+00
      25     1     1     2     0     0 -1.233535059E+02  4.741348690E+01 -4.038594264E+02  4.429351673E+02  1.250000000E+02  0.00000E+00  9.000E+00
      25     1     1     2     0     0  1.506400099E+02 -6.212862117E+01 -2.360608723E+02  3.128931345E+02  1.250000000E+02  0.00000E+00  9.000E+00
      21     1     1     2   501   511 -2.728650408E+01  1.471513426E+01 -7.284015198E+00  3.184564897E+01  6.474721725E-07  0.00000E+00  9.000E+00
#rwgt            1           1   1.9757260690773749E-002           8      324934           0
</event>
<event>
      5   9999  3.79277E-02  1.90152E+01 -1.00000E+00  1.68199E-01
      21    -1     0     0   512   501  0.000000000E+00  0.000000000E+00  2.139651875E+02  2.139651875E+02  0.000000000E+00  0.00000E+00  9.000E+00
      21    -1     0     0   501   502  0.000000000E+00  0.000000000E+00 -2.665138439E+02  2.665138439E+02  0.000000000E+00  0.00000E+00  9.000E+00
      25     1     1     2     0     0 -7.672057115E+01  1.413525631E+02 -5.744212090E+01  2.116392931E+02  1.250000000E+02  0.00000E+00  9.000E+00
      25     1     1     2     0     0  6.140871021E+01 -1.300775320E+02 -6.112993675E+01  2.001326140E+02  1.250000000E+02  0.00000E+00  9.000E+00
      21     1     1     2   512   502  1.531186094E+01 -1.127503110E+01  6.602340130E+01  6.870712431E+01  1.651812370E-06  0.00000E+00  9.000E+00
#rwgt            1           1   2.9377663324045789E-002           8      325110           0
</event>
<event>
      5   9999  3.79277E-02  2.30807E+01 -1.00000E+00  1.61394E-01
      21    -1     0     0   502   501  0.000000000E+00  0.000000000E+00  1.177723030E+03  1.177723030E+03  0.000000000E+00  0.00000E+00  9.000E+00
      21    -1     0     0   511   502  0.000000000E+00  0.000000000E+00 -7.055936274E+01  7.055936274E+01  0.000000000E+00  0.00000E+00  9.000E+00
      25     1     1     2     0     0 -7.802304462E+01  1.687130789E+02  8.783124474E+02  9.064267504E+02  1.250000000E+02  0.00000E+00  9.000E+00
      25     1     1     2     0     0  5.891346563E+01 -1.816569452E+02  1.914512805E+02  2.979070912E+02  1.250000000E+02  0.00000E+00  9.000E+00
      21     1     1     2   511   501  1.910957899E+01  1.294386630E+01  3.739993893E+01  4.394855078E+01  4.768371582E-07  0.00000E+00  9.000E+00
#rwgt            1           1   4.9982933952813252E-002           8      325260           0
</event>
<event>
      5   9999  3.79277E-02  5.01689E+01 -1.00000E+00  1.38992E-01
      21    -1     0     0   502   501  0.000000000E+00  0.000000000E+00  1.563726186E+02  1.563726186E+02  0.000000000E+00  0.00000E+00  9.000E+00
      21    -1     0     0   512   502  0.000000000E+00  0.000000000E+00 -2.239208983E+03  2.239208983E+03  0.000000000E+00  0.00000E+00  9.000E+00
      25     1     1     2     0     0 -1.474506603E+02  1.418237909E+02 -2.432361281E+02  3.415325737E+02  1.250000000E+02  0.00000E+00  9.000E+00
      25     1     1     2     0     0  1.528412681E+02 -1.917022590E+02 -7.029978401E+01  2.840374429E+02  1.250000000E+02  0.00000E+00  9.000E+00
      21     1     1     2   512   501 -5.390607752E+00  4.987846814E+01 -1.769300452E+03  1.770011585E+03  2.157918644E-05  0.00000E+00  9.000E+00
#rwgt            1           1   3.5392822174755312E-002           8      325504           0
</event>
<event>
      5   9999  3.79277E-02  6.74527E+01 -1.00000E+00  1.32041E-01
      21    -1     0     0   502   501  0.000000000E+00  0.000000000E+00  1.359969696E+02  1.359969696E+02  0.000000000E+00  0.00000E+00  9.000E+00
      21    -1     0     0   511   502  0.000000000E+00  0.000000000E+00 -5.523272308E+02  5.523272308E+02  0.000000000E+00  0.00000E+00  9.000E+00
      25     1     1     2     0     0  1.147066262E+02  8.811897727E+01 -3.089912109E+01  1.936551573E+02  1.250000000E+02  0.00000E+00  9.000E+00
      25     1     1     2     0     0 -1.815884603E+02 -9.687623578E+01 -3.219692409E+02  4.020554266E+02  1.250000000E+02  0.00000E+00  9.000E+00
      21     1     1     2   511   501  6.688183414E+01  8.757258510E+00 -6.346189912E+01  9.261361647E+01  6.743495762E-07  0.00000E+00  9.000E+00
#rwgt            1           1   3.9043388760610809E-002           8      325602           0
</event>
<event>
      5   9999  3.79277E-02  3.94060E+01 -1.00000E+00  1.45244E-01
      21    -1     0     0   502   501  0.000000000E+00  0.000000000E+00  3.934922506E+02  3.934922506E+02  0.000000000E+00  0.00000E+00  9.000E+00
      21    -1     0     0   512   502  0.000000000E+00  0.000000000E+00 -7.281293425E+02  7.281293425E+02  0.000000000E+00  0.00000E+00  9.000E+00
      25     1     1     2     0     0 -1.971899960E+02 -8.960453493E+01  1.954593543E+02  3.173991594E+02  1.250000000E+02  0.00000E+00  9.000E+00
      25     1     1     2     0     0  2.237603725E+02  6.050385145E+01  9.176066810E+00  2.635120881E+02  1.250000000E+02  0.00000E+00  9.000E+00
      21     1     1     2   512   501 -2.657037656E+01  2.910068348E+01 -5.392725130E+02  5.407103457E+02  0.000000000E+00  0.00000E+00  9.000E+00
#rwgt            1           1   4.0510088950581724E-002           8      325723           0
</event>
<event>
      5   9999  3.79277E-02  5.00472E+01 -1.00000E+00  1.39052E-01
      21    -1     0     0   502   501  0.000000000E+00  0.000000000E+00  4.287093309E+02  4.287093309E+02  0.000000000E+00  0.00000E+00  9.000E+00
      21    -1     0     0   501   511  0.000000000E+00  0.000000000E+00 -6.246415306E+02  6.246415306E+02  0.000000000E+00  0.00000E+00  9.000E+00
      25     1     1     2     0     0  2.103531532E+02  1.390331809E+02  2.231239788E+02  3.591489724E+02  1.250000000E+02  0.00000E+00  9.000E+00
      25     1     1     2     0     0 -1.925789861E+02 -1.858177938E+02 -2.438362137E+01  2.963688232E+02  1.250000000E+02  0.00000E+00  9.000E+00
      21     1     1     2   502   511 -1.777416708E+01  4.678461285E+01 -3.946725571E+02  3.978330660E+02  5.394796609E-06  0.00000E+00  9.000E+00
#rwgt            1           1   3.8799099051635033E-002           8      325879           0
</event>
<event>
      5   9999  3.79277E-02  1.14149E+02 -1.00000E+00  1.21297E-01
      21    -1     0     0   502   501  0.000000000E+00  0.000000000E+00  9.499397760E+02  9.499397760E+02  0.000000000E+00  0.00000E+00  9.000E+00
      21    -1     0     0   512   502  0.000000000E+00  0.000000000E+00 -9.141792936E+01  9.141792936E+01  0.000000000E+00  0.00000E+00  9.000E+00
      25     1     1     2     0     0  6.186438177E+01 -1.515630010E+02  4.867009963E+02  5.284897396E+02  1.250000000E+02  0.00000E+00  9.000E+00
      25     1     1     2     0     0  4.187298826E+01  1.991914390E+02  2.427647349E+02  3.405734767E+02  1.250000000E+02  0.00000E+00  9.000E+00
      21     1     1     2   512   501 -1.037373700E+02 -4.762843794E+01  1.290561154E+02  1.722944891E+02  3.814697266E-06  0.00000E+00  9.000E+00
#rwgt            1           1   3.6322065846413690E-002           8      326093           0
</event>
<event>
      5   9999  3.79277E-02  3.60329E+02 -1.00000E+00  1.03069E-01
      21    -1     0     0   502   501  0.000000000E+00  0.000000000E+00  6.723574343E+02  6.723574343E+02  0.000000000E+00  0.00000E+00  9.000E+00
      21    -1     0     0   511   502  0.000000000E+00  0.000000000E+00 -1.208500459E+03  1.208500459E+03  0.000000000E+00  0.00000E+00  9.000E+00
      25     1     1     2     0     0  2.099604937E+02  1.416598649E+02  7.954655358E+01  2.934341160E+02  1.250000000E+02  0.00000E+00  9.000E+00
      25     1     1     2     0     0  1.366082730E+02 -4.303430497E+01  4.360415543E+02  4.756795232E+02  1.250000000E+02  0.00000E+00  9.000E+00
      21     1     1     2   511   501 -3.465687667E+02 -9.862555996E+01 -1.051731132E+03  1.111744254E+03  1.525878906E-05  0.00000E+00  9.000E+00
#rwgt            2          11   2.0885583225659595E-003           8      326170           0
</event>
<event>
      5   9999  3.79277E-02  5.22388E+00 -1.00000E+00  2.35240E-01
      21    -1     0     0   512   501  0.000000000E+00  0.000000000E+00  4.733625045E+01  4.733625045E+01  0.000000000E+00  0.00000E+00  9.000E+00
      21    -1     0     0   501   502  0.000000000E+00  0.000000000E+00 -6.858250161E+02  6.858250161E+02  0.000000000E+00  0.00000E+00  9.000E+00
      25     1     1     2     0     0  2.530300664E+01  1.198072067E+02 -3.962990745E+02  4.332112249E+02  1.250000000E+02  0.00000E+00  9.000E+00
      25     1     1     2     0     0 -2.232592838E+01 -1.155146581E+02 -2.334635414E+02  2.897797586E+02  1.250000000E+02  0.00000E+00  9.000E+00
      21     1     1     2   512   502 -2.977078262E+00 -4.292548614E+00 -8.726149740E+00  1.017028308E+01  1.685873940E-07  0.00000E+00  9.000E+00
#rwgt            1           1  0.25790407556082645                8      326220           0
</event>
<event>
      5   9999  3.79277E-02  3.63685E+02 -1.00000E+00  1.02945E-01
      -2    -1     0     0     0   501  0.000000000E+00  0.000000000E+00  1.786018537E+03  1.786018537E+03  0.000000000E+00  0.00000E+00  9.000E+00
      21    -1     0     0   501   502  0.000000000E+00  0.000000000E+00 -3.117330067E+02  3.117330067E+02  0.000000000E+00  0.00000E+00  9.000E+00
      25     1     1     2     0     0 -2.431998754E+02 -1.550929873E+02  6.922288105E+01  3.218956684E+02  1.250000000E+02  0.00000E+00  9.000E+00
      25     1     1     2     0     0 -8.576460130E+01  3.101717172E+02  2.217642727E+01  3.459463179E+02  1.250000000E+02  0.00000E+00  9.000E+00
      -2     1     1     2     0   502  3.289644767E+02 -1.550787299E+02  1.382886222E+03  1.429909558E+03  1.525878906E-05  0.00000E+00  9.000E+00
#rwgt            1           1   2.8465913784344463E-002           8      326755           0
</event>
<event>
      5   9999 -3.79277E-02  3.92794E+01 -1.00000E+00  1.45331E-01
      21    -1     0     0   502   501  0.000000000E+00  0.000000000E+00  6.133235564E+01  6.133235564E+01  0.000000000E+00  0.00000E+00  9.000E+00
      21    -1     0     0   511   502  0.000000000E+00  0.000000000E+00 -1.062528765E+03  1.062528765E+03  0.000000000E+00  0.00000E+00  9.000E+00
      25     1     1     2     0     0  1.108715983E+02  4.081455710E+01 -1.148190214E+02  2.068012260E+02  1.250000000E+02  0.00000E+00  9.000E+00
      25     1     1     2     0     0 -1.363667639E+02 -1.093366268E+01 -5.989828109E+02  6.269934984E+02  1.250000000E+02  0.00000E+00  9.000E+00
      21     1     1     2   511   501  2.549516555E+01 -2.988089442E+01 -2.873945770E+02  2.900663962E+02  5.394796609E-06  0.00000E+00  9.000E+00
#rwgt            1           1  -1.5275671104888436E-002           8      326822           0
</event>
<event>
      5   9999  3.79277E-02  3.38163E+01 -1.00000E+00  1.49513E-01
       2    -1     0     0   502     0  0.000000000E+00  0.000000000E+00  3.356972862E+03  3.356972862E+03  0.000000000E+00  0.00000E+00  9.000E+00
      21    -1     0     0   501   502  0.000000000E+00  0.000000000E+00 -2.377303021E+02  2.377303021E+02  0.000000000E+00  0.00000E+00  9.000E+00
      25     1     1     2     0     0 -1.532381049E+02 -2.033069395E+02  9.883614039E-01  2.836222934E+02  1.250000000E+02  0.00000E+00  9.000E+00
      25     1     1     2     0     0  1.436783403E+02  1.708700129E+02  7.359699964E+01  2.662358825E+02  1.250000000E+02  0.00000E+00  9.000E+00
       2     1     1     2   501     0  9.559764579E+00  3.243692658E+01  3.044657199E+03  3.044844988E+03  7.475249459E-05  0.00000E+00  9.000E+00
#rwgt            1           1   3.7982804205918402E-002           8      326910           0
</event>
<event>
      5   9999  3.79277E-02  2.04137E+01 -1.00000E+00  1.65639E-01
      21    -1     0     0   502   511  0.000000000E+00  0.000000000E+00  6.573597911E+01  6.573597911E+01  0.000000000E+00  0.00000E+00  9.000E+00
      21    -1     0     0   501   502  0.000000000E+00  0.000000000E+00 -1.121715081E+03  1.121715081E+03  0.000000000E+00  0.00000E+00  9.000E+00
      25     1     1     2     0     0  6.432971505E+01 -6.440136984E+01 -1.012808872E+02  1.848476854E+02  1.250000000E+02  0.00000E+00  9.000E+00
      25     1     1     2     0     0 -4.947504476E+01  7.840339223E+01 -9.665498617E+02  9.789987268E+02  1.250000000E+02  0.00000E+00  9.000E+00
      21     1     1     2   501   511 -1.485467029E+01 -1.400202239E+01  1.185164711E+01  2.360464784E+01  7.907449699E-07  0.00000E+00  9.000E+00
#rwgt            1           1   4.7166310251725060E-002           8      327069           0
</event>
<event>
      5   9999  3.79277E-02  6.70638E+01 -1.00000E+00  1.32170E-01
      21    -1     0     0   502   501  0.000000000E+00  0.000000000E+00  5.188034230E+01  5.188034230E+01  0.000000000E+00  0.00000E+00  9.000E+00
      21    -1     0     0   512   502  0.000000000E+00  0.000000000E+00 -1.263252481E+03  1.263252481E+03  0.000000000E+00  0.00000E+00  9.000E+00
      25     1     1     2     0     0 -1.341793399E+02  1.178329950E+02 -3.904160047E+02  4.471446821E+02  1.250000000E+02  0.00000E+00  9.000E+00
      25     1     1     2     0     0  7.210322858E+01 -9.245359398E+01 -3.240671284E+02  3.665938438E+02  1.250000000E+02  0.00000E+00  9.000E+00
      21     1     1     2   512   501  6.207611135E+01 -2.537940103E+01 -4.968890059E+02  5.013942977E+02  0.000000000E+00  0.00000E+00  9.000E+00
#rwgt            1           1   2.8471411247659929E-002           8      327316           0
</event>
<event>
      5   9999  3.79277E-02  3.07326E+01 -1.00000E+00  1.52316E-01
      21    -1     0     0   502   511  0.000000000E+00  0.000000000E+00  7.014526436E+02  7.014526436E+02  0.000000000E+00  0.00000E+00  9.000E+00
      21    -1     0     0   501   502  0.000000000E+00  0.000000000E+00 -9.716585092E+02  9.716585092E+02  0.000000000E+00  0.00000E+00  9.000E+00
      25     1     1     2     0     0  6.859329187E+01  8.139774400E+01 -6.763519108E+02  6.959939221E+02  1.250000000E+02  0.00000E+00  9.000E+00
      25     1     1     2     0     0 -5.944628831E+01 -1.107376099E+02 -2.575797209E+02  3.126803353E+02  1.250000000E+02  0.00000E+00  9.000E+00
      21     1     1     2   501   511 -9.147003568E+00  2.933986587E+01  6.637257661E+02  6.644368954E+02  1.705984480E-05  0.00000E+00  9.000E+00
#rwgt            1           1   4.5924971824055624E-002           8      327423           0
</event>
<event>
      5   9999  3.79277E-02  6.28764E+00 -1.00000E+00  2.22359E-01
      21    -1     0     0   502   501  0.000000000E+00  0.000000000E+00  1.938549925E+03  1.938549925E+03  0.000000000E+00  0.00000E+00  9.000E+00
      21    -1     0     0   512   502  0.000000000E+00  0.000000000E+00 -1.161958068E+02  1.161958068E+02  0.000000000E+00  0.00000E+00  9.000E+00
      25     1     1     2     0     0 -5.909123767E+01  5.004656872E+01  1.637939363E+03  1.644526312E+03  1.250000000E+02  0.00000E+00  9.000E+00
      25     1     1     2     0     0  5.660588511E+01 -5.582216048E+01  2.787531307E+02  3.156717404E+02  1.250000000E+02  0.00000E+00  9.000E+00
      21     1     1     2   512   501  2.485352555E+00  5.775591759E+00 -9.433837599E+01  9.454767909E+01  5.560829062E-06  0.00000E+00  9.000E+00
#rwgt            1           1  0.13607965366766048                8      327628           0
</event>
<event>
      5   9999  3.79277E-02  7.37033E+01 -1.00000E+00  1.30097E-01
       1    -1     0     0   502     0  0.000000000E+00  0.000000000E+00  5.854883894E+02  5.854883894E+02  0.000000000E+00  0.00000E+00  9.000E+00
      21    -1     0     0   501   502  0.000000000E+00  0.000000000E+00 -1.949449755E+02  1.949449755E+02  0.000000000E+00  0.00000E+00  9.000E+00
      25     1     1     2     0     0 -7.491170285E+01 -6.232047092E+01 -1.115011179E+02  1.937862318E+02  1.250000000E+02  0.00000E+00  9.000E+00
      25     1     1     2     0     0  1.539049590E+00  6.929375946E+01  9.188272220E+01  1.699159451E+02  1.250000000E+02  0.00000E+00  9.000E+00
       1     1     1     2   501     0  7.337265327E+01 -6.973288534E+00  4.101618096E+02  4.167311880E+02  0.000000000E+00  0.00000E+00  9.000E+00
#rwgt            1           1   3.4585041341795783E-002           8      328008           0
</event>
<event>
      5   9999  3.79277E-02  4.46632E+01 -1.00000E+00  1.41931E-01
      21    -1     0     0   511   501  0.000000000E+00  0.000000000E+00  8.238557079E+01  8.238557079E+01  0.000000000E+00  0.00000E+00  9.000E+00
      21    -1     0     0   501   502  0.000000000E+00  0.000000000E+00 -1.014286960E+03  1.014286960E+03  0.000000000E+00  0.00000E+00  9.000E+00
      25     1     1     2     0     0 -9.111515649E+00 -9.702294593E+01 -2.449039178E+01  1.603784619E+02  1.250000000E+02  0.00000E+00  9.000E+00
      25     1     1     2     0     0  1.204210180E+01  5.245597693E+01 -8.617168685E+02  8.723976176E+02  1.250000000E+02  0.00000E+00  9.000E+00
      21     1     1     2   511   502 -2.930586156E+00  4.456696901E+01 -4.569412876E+01  6.389645111E+01  6.743495762E-07  0.00000E+00  9.000E+00
#rwgt            1           1   4.4026243721902496E-002           8      328095           0
</event>
<event>
      5   9999  3.79277E-02  2.80981E+01 -1.00000E+00  1.55042E-01
      21    -1     0     0   512   501  0.000000000E+00  0.000000000E+00  6.074822170E+01  6.074822170E+01  0.000000000E+00  0.00000E+00  9.000E+00
      21    -1     0     0   501   502  0.000000000E+00  0.000000000E+00 -1.187805476E+03  1.187805476E+03  0.000000000E+00  0.00000E+00  9.000E+00
      25     1     1     2     0     0  1.312085738E+02 -7.758897852E+01 -3.902313809E+02  4.371970609E+02  1.250000000E+02  0.00000E+00  9.000E+00
      25     1     1     2     0     0 -1.547498308E+02  6.224916247E+01 -7.513497670E+02  7.797268372E+02  1.250000000E+02  0.00000E+00  9.000E+00
      21     1     1     2   512   502  2.354125691E+01  1.533981605E+01  1.452389361E+01  3.162979954E+01  9.536743164E-07  0.00000E+00  9.000E+00
#rwgt            1           1   4.7610824185457645E-002           8      328309           0
</event>
<event>
      5   9999  3.79277E-02  1.02047E+01 -1.00000E+00  1.94745E-01
      21    -1     0     0   502   511  0.000000000E+00  0.000000000E+00  1.924685218E+03  1.924685218E+03  0.000000000E+00  0.00000E+00  9.000E+00
      21    -1     0     0   501   502  0.000000000E+00  0.000000000E+00 -1.660094168E+01  1.660094168E+01  0.000000000E+00  0.00000E+00  9.000E+00
      25     1     1     2     0     0 -2.489173888E-01  6.109653733E+01  3.717024879E+02  3.968886347E+02  1.250000000E+02  0.00000E+00  9.000E+00
      25     1     1     2     0     0  7.752431347E+00 -6.801269450E+01  1.298601651E+03  1.306398513E+03  1.250000000E+02  0.00000E+00  9.000E+00
      21     1     1     2   501   511 -7.503513958E+00  6.916157177E+00  2.377801373E+02  2.379990118E+02  2.697398305E-06  0.00000E+00  9.000E+00
#rwgt            1           1  0.12214723666514882                8      328492           0
</event>
<event>
      5   9999  3.79277E-02  4.35877E+01 -1.00000E+00  1.42564E-01
      21    -1     0     0   502   501  0.000000000E+00  0.000000000E+00  2.721864662E+02  2.721864662E+02  0.000000000E+00  0.00000E+00  9.000E+00
      21    -1     0     0   512   502  0.000000000E+00  0.000000000E+00 -4.082900643E+02  4.082900643E+02  0.000000000E+00  0.00000E+00  9.000E+00
      25     1     1     2     0     0 -1.800327241E+02 -7.717617005E+00 -1.457617194E+02  2.633302531E+02  1.250000000E+02  0.00000E+00  9.000E+00
      25     1     1     2     0     0  1.369208136E+02  1.413995908E+01  1.694194741E+02  2.515456337E+02  1.250000000E+02  0.00000E+00  9.000E+00
      21     1     1     2   512   501  4.311191050E+01 -6.422342074E+00 -1.597613528E+02  1.656006436E+02  1.907348633E-06  0.00000E+00  9.000E+00
#rwgt            1           1   3.7046543110552124E-002           8      328649           0
</event>
<event>
      5   9999  3.79277E-02  7.54305E+01 -1.00000E+00  1.29598E-01
      21    -1     0     0   502   511  0.000000000E+00  0.000000000E+00  1.137151964E+03  1.137151964E+03  0.000000000E+00  0.00000E+00  9.000E+00
      21    -1     0     0   501   502  0.000000000E+00  0.000000000E+00 -1.185529446E+02  1.185529446E+02  0.000000000E+00  0.00000E+00  9.000E+00
      25     1     1     2     0     0  6.312648890E+01  1.171882118E+02  6.618548190E+02  6.865819922E+02  1.250000000E+02  0.00000E+00  9.000E+00
      25     1     1     2     0     0  8.140561405E+00 -9.247438235E+01 -4.363539822E+01  1.616998086E+02  1.250000000E+02  0.00000E+00  9.000E+00
      21     1     1     2   501   511 -7.126705031E+01 -2.471382946E+01  4.003795988E+02  4.074231080E+02  0.000000000E+00  0.00000E+00  9.000E+00
#rwgt            1           1   3.5501791681451712E-002           8      328807           0
</event>
<event>
      5   9999  3.79277E-02  4.45024E+01 -1.00000E+00  1.42025E-01
      21    -1     0     0   512   501  0.000000000E+00  0.000000000E+00  1.556858299E+02  1.556858299E+02  0.000000000E+00  0.00000E+00  9.000E+00
      21    -1     0     0   501   502  0.000000000E+00  0.000000000E+00 -4.124733379E+02  4.124733379E+02  0.000000000E+00  0.00000E+00  9.000E+00
      25     1     1     2     0     0  1.443236959E+01  1.436262677E+02 -2.673956535E+02  3.285760697E+02  1.250000000E+02  0.00000E+00  9.000E+00
      25     1     1     2     0     0  2.894731082E+01 -1.336930819E+02 -1.878249045E+01  1.862513595E+02  1.250000000E+02  0.00000E+00  9.000E+00
      21     1     1     2   512   502 -4.337968041E+01 -9.933185800E+00  2.939063603E+01  5.333173856E+01  0.000000000E+00  0.00000E+00  9.000E+00
#rwgt            1           1   4.6725522356497011E-002           8      328996           0
</event>
<event>
      5   9999  3.79277E-02  2.02570E+01 -1.00000E+00  1.65913E-01
      21    -1     0     0   502   501  0.000000000E+00  0.000000000E+00  1.342699662E+02  1.342699662E+02  0.000000000E+00  0.00000E+00  9.000E+00
      21    -1     0     0   511   502  0.000000000E+00  0.000000000E+00 -3.674415307E+02  3.674415307E+02  0.000000000E+00  0.00000E+00  9.000E+00
      25     1     1     2     0     0 -6.703994087E+01  1.028350676E+02  1.866158280E+01  1.761892717E+02  1.250000000E+02  0.00000E+00  9.000E+00
      25     1     1     2     0     0  6.235228294E+01 -1.225422416E+02 -2.227752134E+02  2.901003342E+02  1.250000000E+02  0.00000E+00  9.000E+00
      21     1     1     2   511   501  4.687657932E+00  1.970717397E+01 -2.905793384E+01  3.542189100E+01  7.539457465E-07  0.00000E+00  9.000E+00
#rwgt            1           1   4.0979987229511912E-002           8      329069           0
</event>
<event>
      5   9999  3.79277E-02  9.73706E+01 -1.00000E+00  1.24351E-01
      21    -1     0     0   502   501  0.000000000E+00  0.000000000E+00  1.198031062E+03  1.198031062E+03  0.000000000E+00  0.00000E+00  9.000E+00
      21    -1     0     0   512   502  0.000000000E+00  0.000000000E+00 -9.730702761E+01  9.730702761E+01  0.000000000E+00  0.00000E+00  9.000E+00
      25     1     1     2     0     0 -9.594379148E+01  1.442267862E+02  2.596932532E+02  3.362620447E+02  1.250000000E+02  0.00000E+00  9.000E+00
      25     1     1     2     0     0  5.198981375E+01 -2.311122181E+02  8.155781715E+02  8.584337784E+02  1.250000000E+02  0.00000E+00  9.000E+00
      21     1     1     2   512   501  4.395397773E+01  8.688543186E+01  2.545260948E+01  1.006422663E+02  1.507891493E-06  0.00000E+00  9.000E+00
#rwgt            1           1   3.6590385039575256E-002           8      329271           0
</event>
<event>
      5   9999  3.79277E-02  4.08100E+01 -1.00000E+00  1.44302E-01
       2    -1     0     0   502     0  0.000000000E+00  0.000000000E+00  2.661578263E+03  2.661578263E+03  0.000000000E+00  0.00000E+00  9.000E+00
      21    -1     0     0   501   502  0.000000000E+00  0.000000000E+00 -1.756216652E+02  1.756216652E+02  0.000000000E+00  0.00000E+00  9.000E+00
      25     1     1     2     0     0  5.801383083E+01  5.947150127E+01  1.394797518E+02  2.048952542E+02  1.250000000E+02  0.00000E+00  9.000E+00
      25     1     1     2     0     0 -7.261949967E+01 -2.136461792E+01 -1.053431958E+02  1.801450181E+02  1.250000000E+02  0.00000E+00  9.000E+00
       2     1     1     2   501     0  1.460566883E+01 -3.810688335E+01  2.451820042E+03  2.452159656E+03  4.315837288E-05  0.00000E+00  9.000E+00
#rwgt            1           1   4.4455795152334700E-002           8      329368           0
</event>
<event>
      5   9999  3.79277E-02  1.36875E+02 -1.00000E+00  1.17992E-01
      21    -1     0     0   502   511  0.000000000E+00  0.000000000E+00  1.248761222E+03  1.248761222E+03  0.000000000E+00  0.00000E+00  9.000E+00
      21    -1     0     0   501   502  0.000000000E+00  0.000000000E+00 -2.734108004E+02  2.734108004E+02  0.000000000E+00  0.00000E+00  9.000E+00
      25     1     1     2     0     0 -2.297580096E+02  1.028268876E+02  9.333100545E+01  2.961381238E+02  1.250000000E+02  0.00000E+00  9.000E+00
      25     1     1     2     0     0  2.950308813E+02 -2.231353384E+02  6.282114393E+01  3.954795776E+02  1.250000000E+02  0.00000E+00  9.000E+00
      21     1     1     2   501   511 -6.527287172E+01  1.203084508E+02  8.191982724E+02  8.305543213E+02  1.525878906E-05  0.00000E+00  9.000E+00
#rwgt            1           1   4.1671319414678755E-002           8      329506           0
</event>
<event>
      5   9999  3.79277E-02  6.42527E+00 -1.00000E+00  2.20950E-01
      21    -1     0     0   502   512  0.000000000E+00  0.000000000E+00  1.246068452E+02  1.246068452E+02  0.000000000E+00  0.00000E+00  9.000E+00
      21    -1     0     0   501   502  0.000000000E+00  0.000000000E+00 -1.993382032E+02  1.993382032E+02  0.000000000E+00  0.00000E+00  9.000E+00
      25     1     1     2     0     0  5.994496367E+00 -6.607522957E+01  2.612968738E+01  1.439084101E+02  1.250000000E+02  0.00000E+00  9.000E+00
      25     1     1     2     0     0  3.458458012E-01  6.711646925E+01 -9.994240196E+01  1.735460278E+02  1.250000000E+02  0.00000E+00  9.000E+00
      21     1     1     2   501   512 -6.340342168E+00 -1.041239685E+00 -9.186434157E-01  6.490610497E+00  9.884312124E-08  0.00000E+00  9.000E+00
#rwgt            1           1   3.4425451250336539E-002           8      329681           0
</event>
<event>
      5   9999  3.79277E-02  4.21122E+01 -1.00000E+00  1.43468E-01
      21    -1     0     0   502   501  0.000000000E+00  0.000000000E+00  3.904086300E+02  3.904086300E+02  0.000000000E+00  0.00000E+00  9.000E+00
      21    -1     0     0   511   502  0.000000000E+00  0.000000000E+00 -8.079827307E+01  8.079827307E+01  0.000000000E+00  0.00000E+00  9.000E+00
      25     1     1     2     0     0 -1.288987466E+01  2.114005490E+01  2.645885575E+02  2.936752552E+02  1.250000000E+02  0.00000E+00  9.000E+00
      25     1     1     2     0     0 -1.902104110E-01  1.888927009E+01  4.820797317E+01  1.352991108E+02  1.250000000E+02  0.00000E+00  9.000E+00
      21     1     1     2   511   501  1.308008507E+01 -4.002932499E+01 -3.186173681E+00  4.223253707E+01  5.280984982E-07  0.00000E+00  9.000E+00
#rwgt            1           1   8.7416310780237316E-002           8      329993           0
</event>
<event>
      5   9999  3.79277E-02  7.64298E+01 -1.00000E+00  1.29317E-01
      21    -1     0     0   502   501  0.000000000E+00  0.000000000E+00  1.855546847E+03  1.855546847E+03  0.000000000E+00  0.00000E+00  9.000E+00
      21    -1     0     0   512   502  0.000000000E+00  0.000000000E+00 -5.390559783E+01  5.390559783E+01  0.000000000E+00  0.00000E+00  9.000E+00
      25     1     1     2     0     0  1.973307982E+02  8.751144591E+00  1.394860547E+03  1.414311483E+03  1.250000000E+02  0.00000E+00  9.000E+00
      25     1     1     2     0     0 -1.210902552E+02 -3.375990755E+00  3.729244154E+02  4.115481342E+02  1.250000000E+02  0.00000E+00  9.000E+00
      21     1     1     2   512   501 -7.624054294E+01 -5.375153836E+00  3.385628743E+01  8.359282783E+01  1.907348633E-06  0.00000E+00  9.000E+00
#rwgt            1           1   3.4054849334470262E-002           8      330063           0
</event>
<event>
      5   9999  3.79277E-02  1.07434E+02 -1.00000E+00  1.22443E-01
      21    -1     0     0   511   501  0.000000000E+00  0.000000000E+00  7.371629058E+01  7.371629058E+01  0.000000000E+00  0.00000E+00  9.000E+00
      21    -1     0     0   501   502  0.000000000E+00  0.000000000E+00 -9.912942661E+02  9.912942661E+02  0.000000000E+00  0.00000E+00  9.000E+00
      25     1     1     2     0     0  2.190724837E+02 -2.810207514E+01 -4.947720386E+02  5.560637104E+02  1.250000000E+02  0.00000E+00  9.000E+00
      25     1     1     2     0     0 -1.134305364E+02  4.764497060E+01 -2.764224522E+02  3.273696716E+02  1.250000000E+02  0.00000E+00  9.000E+00
      21     1     1     2   511   502 -1.056419473E+02 -1.954289546E+01 -1.463834847E+02  1.815771748E+02  1.907348633E-06  0.00000E+00  9.000E+00
#rwgt            1           1   2.9099758914159900E-002           8      330136           0
</event>
<event>
      5   9999  3.79277E-02  7.78804E+01 -1.00000E+00  1.28916E-01
      21    -1     0     0   502   512  0.000000000E+00  0.000000000E+00  4.055239835E+02  4.055239835E+02  0.000000000E+00  0.00000E+00  9.000E+00
      21    -1     0     0   501   502  0.000000000E+00  0.000000000E+00 -1.453188181E+02  1.453188181E+02  0.000000000E+00  0.00000E+00  9.000E+00
      25     1     1     2     0     0  7.382514295E+01  7.697404273E+01  1.975106141E+02  2.569252764E+02  1.250000000E+02  0.00000E+00  9.000E+00
      25     1     1     2     0     0 -1.349342902E-01 -5.177250912E+01 -6.046976534E+01  1.481958280E+02  1.250000000E+02  0.00000E+00  9.000E+00
      21     1     1     2   501   512 -7.369020866E+01 -2.520153362E+01  1.231643166E+02  1.457216972E+02  1.907348633E-06  0.00000E+00  9.000E+00
#rwgt            1           1   4.3955069627416174E-002           8      330251           0
</event>
<event>
      5   9999  3.79277E-02  9.74958E+00 -1.00000E+00  1.97039E-01
      21    -1     0     0   502   501  0.000000000E+00  0.000000000E+00  1.663604443E+01  1.663604443E+01  0.000000000E+00  0.00000E+00  9.000E+00
      21    -1     0     0   501   511  0.000000000E+00  0.000000000E+00 -3.167341306E+03  3.167341306E+03  0.000000000E+00  0.00000E+00  9.000E+00
      25     1     1     2     0     0  1.869949712E+01 -1.217982165E+02 -6.649188635E+02  6.876965696E+02  1.250000000E+02  0.00000E+00  9.000E+00
      25     1     1     2     0     0 -1.258339752E+01  1.142056146E+02 -1.373804496E+03  1.384256138E+03  1.250000000E+02  0.00000E+00  9.000E+00
      21     1     1     2   502   511 -6.116099600E+00  7.592601867E+00 -1.111981902E+03  1.112024642E+03  1.525878906E-05  0.00000E+00  9.000E+00
#rwgt            1           1   9.8634221791495461E-002           8      330342           0
</event>
<event>
      5   9999  3.79277E-02  1.51315E+02 -1.00000E+00  1.16244E-01
       2    -1     0     0   502     0  0.000000000E+00  0.000000000E+00  2.710726631E+03  2.710726631E+03  0.000000000E+00  0.00000E+00  9.000E+00
      21    -1     0     0   501   502  0.000000000E+00  0.000000000E+00 -9.636696869E+01  9.636696869E+01  0.000000000E+00  0.00000E+00  9.000E+00
      25     1     1     2     0     0  1.181267163E+02  2.030909559E+02  1.478502387E+02  3.044413746E+02  1.250000000E+02  0.00000E+00  9.000E+00
      25     1     1     2     0     0 -8.171361641E+01 -5.622296015E+01  4.006418967E+02  4.312505835E+02  1.250000000E+02  0.00000E+00  9.000E+00
       2     1     1     2   501     0 -3.641309992E+01 -1.468679958E+02  2.065867527E+03  2.071401641E+03  4.315837288E-05  0.00000E+00  9.000E+00
#rwgt            1           1   3.4296860412461175E-002           8      330520           0
</event>
<event>
      5   9999  3.79277E-02  4.74376E+01 -1.00000E+00  1.40392E-01
      21    -1     0     0   502   511  0.000000000E+00  0.000000000E+00  3.186832322E+02  3.186832322E+02  0.000000000E+00  0.00000E+00  9.000E+00
      21    -1     0     0   501   502  0.000000000E+00  0.000000000E+00 -3.086890828E+02  3.086890828E+02  0.000000000E+00  0.00000E+00  9.000E+00
      25     1     1     2     0     0 -7.448177025E+00  3.477732145E+01  2.217989480E+02  2.570694668E+02  1.250000000E+02  0.00000E+00  9.000E+00
      25     1     1     2     0     0  2.778021257E+01 -7.763681748E+01 -2.616632833E+02  3.014828179E+02  1.250000000E+02  0.00000E+00  9.000E+00
      21     1     1     2   501   511 -2.033203554E+01  4.285949603E+01  4.985848473E+01  6.882003029E+01  9.536743164E-07  0.00000E+00  9.000E+00
#rwgt            1           1   4.2929199969059605E-002           8      330557           0
</event>
<event>
      5   9999  3.79277E-02  7.35920E+01 -1.00000E+00  1.30129E-01
      21    -1     0     0   502   501  0.000000000E+00  0.000000000E+00  1.073514715E+03  1.073514715E+03  0.000000000E+00  0.00000E+00  9.000E+00
      -3    -1     0     0     0   502  0.000000000E+00  0.000000000E+00 -5.582165326E+01  5.582165326E+01  0.000000000E+00  0.00000E+00  9.000E+00
      25     1     1     2     0     0 -1.739559776E+00 -1.548410320E+02  4.475838505E+02  4.898316798E+02  1.250000000E+02  0.00000E+00  9.000E+00
      25     1     1     2     0     0 -7.184263343E+01  1.536407991E+02  4.717478555E+02  5.166603316E+02  1.250000000E+02  0.00000E+00  9.000E+00
      -3     1     1     2     0   501  7.358219320E+01  1.200232924E+00  9.836135578E+01  1.228443569E+02  1.907348633E-06  0.00000E+00  9.000E+00
#rwgt            1           1   9.9219916339653838E-002           8      330884           0
</event>
<event>
      5   9999  3.79277E-02  1.82307E+01 -1.00000E+00  1.69758E-01
      21    -1     0     0   511   501  0.000000000E+00  0.000000000E+00  2.180990420E+02  2.180990420E+02  0.000000000E+00  0.00000E+00  9.000E+00
      21    -1     0     0   501   502  0.000000000E+00  0.000000000E+00 -5.062754364E+02  5.062754364E+02  0.000000000E+00  0.00000E+00  9.000E+00
      25     1     1     2     0     0 -2.836942820E+01  1.799019131E+02 -3.167630439E+02  3.861778719E+02  1.250000000E+02  0.00000E+00  9.000E+00
      25     1     1     2     0     0  1.707118964E+01 -1.942095221E+02 -6.684152161E+01  2.410426373E+02  1.250000000E+02  0.00000E+00  9.000E+00
      21     1     1     2   511   502  1.129823856E+01  1.430760904E+01  9.542817115E+01  9.715396914E+01  1.348699152E-06  0.00000E+00  9.000E+00
#rwgt            1           1   3.4472258442492777E-002           8      330993           0
</event>
<event>
      5   9999  3.79277E-02  9.10486E+01 -1.00000E+00  1.25688E-01
      21    -1     0     0   502   501  0.000000000E+00  0.000000000E+00  7.251906665E+02  7.251906665E+02  0.000000000E+00  0.00000E+00  9.000E+00
      21    -1     0     0   501   512  0.000000000E+00  0.000000000E+00 -1.593658858E+02  1.593658858E+02  0.000000000E+00  0.00000E+00  9.000E+00
      25     1     1     2     0     0  5.581234156E+01 -8.621558112E+01  5.047482685E+02  5.300414686E+02  1.250000000E+02  0.00000E+00  9.000E+00
      25     1     1     2     0     0  3.204597603E+01  1.101061868E+02  1.505914679E+02  2.268327736E+02  1.250000000E+02  0.00000E+00  9.000E+00
      21     1     1     2   502   512 -8.785831760E+01 -2.389060571E+01 -8.951495569E+01  1.276823101E+02  3.015782986E-06  0.00000E+00  9.000E+00
#rwgt            1           1   4.0948986854648831E-002           8      331145           0
</event>
<event>
      5   9999  3.79277E-02  1.64304E+01 -1.00000E+00  1.73736E-01
      21    -1     0     0   502   511  0.000000000E+00  0.000000000E+00  3.541293366E+02  3.541293366E+02  0.000000000E+00  0.00000E+00  9.000E+00
      21    -1     0     0   501   502  0.000000000E+00  0.000000000E+00 -2.150973940E+02  2.150973940E+02  0.000000000E+00  0.00000E+00  9.000E+00
      25     1     1     2     0     0  4.315033842E+01 -8.774757918E+01 -1.523082433E+02  2.199645206E+02  1.250000000E+02  0.00000E+00  9.000E+00
      25     1     1     2     0     0 -3.133506535E+01  9.916506195E+01  2.064514548E+02  2.627980194E+02  1.250000000E+02  0.00000E+00  9.000E+00
      21     1     1     2   501   511 -1.181527307E+01 -1.141748276E+01  8.488873102E+01  8.646419053E+01  9.536743164E-07  0.00000E+00  9.000E+00
#rwgt            1           1   3.1616342145054391E-002           8      331249           0
</event>
<event>
      5   9999  3.79277E-02  6.63634E+00 -1.00000E+00  2.18881E-01
      21    -1     0     0   502   501  0.000000000E+00  0.000000000E+00  1.737594404E+02  1.737594404E+02  0.000000000E+00  0.00000E+00  9.000E+00
      21    -1     0     0   501   512  0.000000000E+00  0.000000000E+00 -2.674324135E+02  2.674324135E+02  0.000000000E+00  0.00000E+00  9.000E+00
      25     1     1     2     0     0 -5.752104017E+00  6.415743079E+01  1.171612509E+02  1.830328422E+02  1.250000000E+02  0.00000E+00  9.000E+00
      25     1     1     2     0     0 -2.598014094E-01 -6.696777494E+01 -2.053147498E+02  2.495273469E+02  1.250000000E+02  0.00000E+00  9.000E+00
      21     1     1     2   502   512  6.011905426E+00  2.810344150E+00 -5.519474220E+00  8.631664773E+00  5.960464478E-08  0.00000E+00  9.000E+00
#rwgt            1           1   4.7189820936176206E-002           8      331572           0
</event>
<event>
      5   9999  3.79277E-02  4.06720E+01 -1.00000E+00  1.44393E-01
      21    -1     0     0   502   511  0.000000000E+00  0.000000000E+00  4.180723677E+02  4.180723677E+02  0.000000000E+00  0.00000E+00  9.000E+00
      21    -1     0     0   501   502  0.000000000E+00  0.000000000E+00 -1.679259594E+02  1.679259594E+02  0.000000000E+00  0.00000E+00  9.000E+00
      25     1     1     2     0     0  9.044730424E+00 -1.579127086E+02  2.366634448E+02  3.108903613E+02  1.250000000E+02  0.00000E+00  9.000E+00
      25     1     1     2     0     0 -3.458870240E+01  1.895626057E+02 -6.531467132E+00  2.297781972E+02  1.250000000E+02  0.00000E+00  9.000E+00
      21     1     1     2   501   511  2.554397198E+01 -3.164989717E+01  2.001443066E+01  4.532976870E+01  5.840038640E-07  0.00000E+00  9.000E+00
#rwgt            1           1   2.6742498410632483E-002           8      331999           0
</event>
<event>
      5   9999  3.79277E-02  8.45212E+00 -1.00000E+00  2.04597E-01
      21    -1     0     0   502   512  0.000000000E+00  0.000000000E+00  1.006759260E+03  1.006759260E+03  0.000000000E+00  0.00000E+00  9.000E+00
      21    -1     0     0   501   502  0.000000000E+00  0.000000000E+00 -1.146636457E+02  1.146636457E+02  0.000000000E+00  0.00000E+00  9.000E+00
      25     1     1     2     0     0 -1.146902961E+02 -2.742600889E+01 -3.384773684E+01  1.751477070E+02  1.250000000E+02  0.00000E+00  9.000E+00
      25     1     1     2     0     0  1.224327257E+02  2.403584999E+01  7.655172520E+02  7.856266018E+02  1.250000000E+02  0.00000E+00  9.000E+00
      21     1     1     2   501   512 -7.742429605E+00  3.390158900E+00  1.604260996E+02  1.606485974E+02  1.907348633E-06  0.00000E+00  9.000E+00
#rwgt            1           1   4.5028253482776455E-002           8      332152           0
</event>
<event>
      5   9999  3.79277E-02  6.48628E+01 -1.00000E+00  1.32919E-01
      21    -1     0     0   502   501  0.000000000E+00  0.000000000E+00  1.622730856E+03  1.622730856E+03  0.000000000E+00  0.00000E+00  9.000E+00
      21    -1     0     0   511   502  0.000000000E+00  0.000000000E+00 -4.625441369E+01  4.625441369E+01  0.000000000E+00  0.00000E+00  9.000E+00
      25     1     1     2     0     0 -1.642736436E+02 -9.659609923E+01  6.338507576E+02  6.735788144E+02  1.250000000E+02  0.00000E+00  9.000E+00
      25     1     1     2     0     0  1.057116403E+02  1.244829932E+02  8.851967757E+02  9.087735132E+02  1.250000000E+02  0.00000E+00  9.000E+00
      21     1     1     2   511   501  5.856200331E+01 -2.788689402E+01  5.742890944E+01  8.663294252E+01  2.132480600E-06  0.00000E+00  9.000E+00
#rwgt            1           1   5.0437997544375397E-002           8      332527           0
</event>
<event>
      5   9999  3.79277E-02  6.06567E+01 -1.00000E+00  1.34451E-01
       1    -1     0     0   502     0  0.000000000E+00  0.000000000E+00  8.307704290E+02  8.307704290E+02  0.000000000E+00  0.00000E+00  9.000E+00
      21    -1     0     0   501   502  0.000000000E+00  0.000000000E+00 -6.965038310E+01  6.965038310E+01  0.000000000E+00  0.00000E+00  9.000E+00
      25     1     1     2     0     0  1.781730815E+01  7.076085549E+01  3.551139275E+02  3.834781045E+02  1.250000000E+02  0.00000E+00  9.000E+00
      25     1     1     2     0     0 -7.842575377E+01 -7.317924039E+01  7.598922027E+01  1.813977995E+02  1.250000000E+02  0.00000E+00  9.000E+00
       1     1     1     2   501     0  6.060844561E+01  2.418384898E+00  3.300168981E+02  3.355449080E+02  6.607249480E-06  0.00000E+00  9.000E+00
#rwgt            1           1   3.9731071645784932E-002           8      332713           0
</event>
<event>
      5   9999  3.79277E-02  6.37957E+01 -1.00000E+00  1.33295E-01
      21    -1     0     0   502   501  0.000000000E+00  0.000000000E+00  6.506701160E+02  6.506701160E+02  0.000000000E+00  0.00000E+00  9.000E+00
      21    -1     0     0   511   502  0.000000000E+00  0.000000000E+00 -1.162648613E+02  1.162648613E+02  0.000000000E+00  0.00000E+00  9.000E+00
      25     1     1     2     0     0 -9.136872596E+01  3.872978053E+01  4.645957734E+02  4.912458373E+02  1.250000000E+02  0.00000E+00  9.000E+00
      25     1     1     2     0     0  1.549727831E+02 -3.378840375E+01  6.291527415E+01  2.115219881E+02  1.250000000E+02  0.00000E+00  9.000E+00
      21     1     1     2   511   501 -6.360405715E+01 -4.941376777E+00  6.894207100E+00  6.416715189E+01  1.111910230E-06  0.00000E+00  9.000E+00
#rwgt            1           1   3.6446816565266368E-002           8      332790           0
</event>
<event>
      5   9999  3.79277E-02  1.38759E+02 -1.00000E+00  1.17750E-01
      21    -1     0     0   502   501  0.000000000E+00  0.000000000E+00  1.800444791E+03  1.800444791E+03  0.000000000E+00  0.00000E+00  9.000E+00
      21    -1     0     0   501   512  0.000000000E+00  0.000000000E+00 -7.244282912E+01  7.244282912E+01  0.000000000E+00  0.00000E+00  9.000E+00
      25     1     1     2     0     0  1.791254517E+02  1.132019433E+02  7.226403615E+02  7.633706174E+02  1.250000000E+02  0.00000E+00  9.000E+00
      25     1     1     2     0     0 -2.235109034E+02  1.826671802E+01  8.982639957E+02  9.342344475E+02  1.250000000E+02  0.00000E+00  9.000E+00
      21     1     1     2   502   512  4.438545174E+01 -1.314686614E+02  1.070976047E+02  1.752825553E+02  2.336015456E-06  0.00000E+00  9.000E+00
#rwgt            1           1   3.6887534985434400E-002           8      332977           0
</event>
<event>
      5   9999  3.79277E-02  1.45156E+02 -1.00000E+00  1.16961E-01
      21    -1     0     0   502   501  0.000000000E+00  0.000000000E+00  3.567471283E+02  3.567471283E+02  0.000000000E+00  0.00000E+00  9.000E+00
      21    -1     0     0   501   511  0.000000000E+00  0.000000000E+00 -3.121455884E+02  3.121455884E+02  0.000000000E+00  0.00000E+00  9.000E+00
      25     1     1     2     0     0  1.215451754E+02  1.704714727E+01  2.517968537E+02  3.067417324E+02  1.250000000E+02  0.00000E+00  9.000E+00
      25     1     1     2     0     0  8.263425470E+00 -8.200832385E+01 -8.348729860E+01  1.714315560E+02  1.250000000E+02  0.00000E+00  9.000E+00
      21     1     1     2   502   511 -1.298086008E+02  6.496117658E+01 -1.237080151E+02  1.907194283E+02  3.568322551E-06  0.00000E+00  9.000E+00
#rwgt            2          11   1.9118465869635152E-003           8      333044           0
</event>
<event>
      5   9999  3.79277E-02  3.08532E+02 -1.00000E+00  1.05198E-01
      21    -1     0     0   502   501  0.000000000E+00  0.000000000E+00  1.065873265E+03  1.065873265E+03  0.000000000E+00  0.00000E+00  9.000E+00
      21    -1     0     0   512   502  0.000000000E+00  0.000000000E+00 -7.762441310E+02  7.762441310E+02  0.000000000E+00  0.00000E+00  9.000E+00
      25     1     1     2     0     0 -1.727539389E+02  1.005006489E+02  8.781564273E+01  2.515569338E+02  1.250000000E+02  0.00000E+00  9.000E+00
      25     1     1     2     0     0  1.322552928E+02  2.053614361E+02  8.389338675E+02  8.826663107E+02  1.250000000E+02  0.00000E+00  9.000E+00
      21     1     1     2   512   501  4.049864619E+01 -3.058620850E+02 -6.371203764E+02  7.078941513E+02  7.629394531E-06  0.00000E+00  9.000E+00
#rwgt            1           1   3.6451148069907388E-002           8      333064           0
</event>
<event>
      5   9999  3.79277E-02  8.16331E+01 -1.00000E+00  1.27926E-01
      21    -1     0     0   502   501  0.000000000E+00  0.000000000E+00  3.173827837E+01  3.173827837E+01  0.000000000E+00  0.00000E+00  9.000E+00
       2    -1     0     0   501     0  0.000000000E+00  0.000000000E+00 -2.463419213E+03  2.463419213E+03  0.000000000E+00  0.00000E+00  9.000E+00
      25     1     1     2     0     0 -1.150287590E+02 -1.133985809E+02 -1.045362369E+03  1.065128319E+03  1.250000000E+02  0.00000E+00  9.000E+00
      25     1     1     2     0     0  5.292214776E+01  1.663772358E+02 -5.611061331E+02  6.007888405E+02  1.250000000E+02  0.00000E+00  9.000E+00
       2     1     1     2   502     0  6.210661122E+01 -5.297865495E+01 -8.252124319E+02  8.292403312E+02  1.525878906E-05  0.00000E+00  9.000E+00
#rwgt            1           1   4.3894829196554949E-002           8      333115           0
</event>
<event>
      5   9999  3.79277E-02  2.22539E+01 -1.00000E+00  1.62631E-01
      21    -1     0     0   502   501  0.000000000E+00  0.000000000E+00  5.739023595E+02  5.739023595E+02  0.000000000E+00  0.00000E+00  9.000E+00
      21    -1     0     0   511   502  0.000000000E+00  0.000000000E+00 -1.026540319E+03  1.026540319E+03  0.000000000E+00  0.00000E+00  9.000E+00
      25     1     1     2     0     0 -9.575172292E-01 -1.008463284E+02 -6.723513594E+01  1.741162321E+02  1.250000000E+02  0.00000E+00  9.000E+00
      25     1     1     2     0     0 -3.737421582E+00  7.909332893E+01  5.098037668E+02  5.308432948E+02  1.250000000E+02  0.00000E+00  9.000E+00
      21     1     1     2   511   501  4.694938812E+00  2.175299942E+01 -8.952065905E+02  8.954831518E+02  1.078959322E-05  0.00000E+00  9.000E+00
#rwgt            1           1   3.7987653234046334E-002           8      333355           0
</event>
<event>
      5   9999 -3.79277E-02  9.38825E+00 -1.00000E+00  1.98981E-01
      21    -1     0     0   502   501  0.000000000E+00  0.000000000E+00  6.065469535E+02  6.065469535E+02  0.000000000E+00  0.00000E+00  9.000E+00
      21    -1     0     0   501   512  0.000000000E+00  0.000000000E+00 -1.270723730E+02  1.270723730E+02  0.000000000E+00  0.00000E+00  9.000E+00
      25     1     1     2     0     0 -1.944397586E+02 -4.936471010E+01  2.790392820E+02  3.656933350E+02  1.250000000E+02  0.00000E+00  9.000E+00
      25     1     1     2     0     0  1.933125819E+02  4.004437331E+01  2.354256969E+02  3.316980025E+02  1.250000000E+02  0.00000E+00  9.000E+00
      21     1     1     2   502   512  1.127176736E+00  9.320336789E+00 -3.499039839E+01  3.622798897E+01  8.259061849E-07  0.00000E+00  9.000E+00
#rwgt            1           1 -0.10740683408838402                8      333563           0
</event>
<event>
      5   9999  3.79277E-02  3.54819E+01 -1.00000E+00  1.48144E-01
      21    -1     0     0   502   511  0.000000000E+00  0.000000000E+00  1.186701689E+02  1.186701689E+02  0.000000000E+00  0.00000E+00  9.000E+00
      21    -1     0     0   501   502  0.000000000E+00  0.000000000E+00 -1.572800842E+03  1.572800842E+03  0.000000000E+00  0.00000E+00  9.000E+00
      25     1     1     2     0     0 -1.219088704E+02 -2.810410669E+02 -4.030334894E+02  5.214468789E+02  1.250000000E+02  0.00000E+00  9.000E+00
      25     1     1     2     0     0  9.631061431E+01  3.056111969E+02 -1.074041887E+03  1.127769885E+03  1.250000000E+02  0.00000E+00  9.000E+00
      21     1     1     2   501   511  2.559825611E+01 -2.457013002E+01  2.294470328E+01  4.225424728E+01  1.390207266E-06  0.00000E+00  9.000E+00
#rwgt            1           1   2.7268833301442860E-002           8      333808           0
</event>
<event>
      5   9999  3.79277E-02  7.32555E+01 -1.00000E+00  1.30229E-01
      21    -1     0     0   502   512  0.000000000E+00  0.000000000E+00  1.122358018E+03  1.122358018E+03  0.000000000E+00  0.00000E+00  9.000E+00
      21    -1     0     0   501   502  0.000000000E+00  0.000000000E+00 -1.353123902E+02  1.353123902E+02  0.000000000E+00  0.00000E+00  9.000E+00
      25     1     1     2     0     0  4.451718389E+01  2.245324310E+02  6.373649997E+01  2.684845129E+02  1.250000000E+02  0.00000E+00  9.000E+00
      25     1     1     2     0     0 -1.173256443E+02 -2.164518455E+02  7.930071037E+02  8.397035041E+02  1.250000000E+02  0.00000E+00  9.000E+00
      21     1     1     2   501   512  7.280846043E+01 -8.080585491E+00  1.303020236E+02  1.494823907E+02  1.907348633E-06  0.00000E+00  9.000E+00
#rwgt            1           1   4.4382777716754508E-002           8      333998           0
</event>
<event>
      5   9999  3.79277E-02  6.68850E+01 -1.00000E+00  1.32230E-01
      21    -1     0     0   502   511  0.000000000E+00  0.000000000E+00  5.126963220E+02  5.126963220E+02  0.000000000E+00  0.00000E+00  9.000E+00
      21    -1     0     0   501   502  0.000000000E+00  0.000000000E+00 -1.678395500E+02  1.678395500E+02  0.000000000E+00  0.00000E+00  9.000E+00
      25     1     1     2     0     0 -4.625542829E+01  7.003690036E+01 -1.035166305E+02  1.827167886E+02  1.250000000E+02  0.00000E+00  9.000E+00
      25     1     1     2     0     0  5.003170454E+01 -3.258569075E+00  2.039244843E+02  2.443849116E+02  1.250000000E+02  0.00000E+00  9.000E+00
      21     1     1     2   501   511 -3.776276250E+00 -6.677833129E+01  2.444489183E+02  2.534341718E+02  4.672030912E-06  0.00000E+00  9.000E+00
#rwgt            1           1   3.7858747870679596E-002           8      334269           0
</event>
<event>
      5   9999  3.79277E-02  3.26962E+00 -1.00000E+00  2.85969E-01
      21    -1     0     0   512   501  0.000000000E+00  0.000000000E+00  1.172011282E+02  1.172011282E+02  0.000000000E+00  0.00000E+00  9.000E+00
      21    -1     0     0   501   502  0.000000000E+00  0.000000000E+00 -4.539011005E+02  4.539011005E+02  0.000000000E+00  0.00000E+00  9.000E+00
      25     1     1     2     0     0 -1.725970674E+02  8.433212079E+00 -6.788526275E+01  2.238175052E+02  1.250000000E+02  0.00000E+00  9.000E+00
      25     1     1     2     0     0  1.754678804E+02 -9.998082775E+00 -2.678292855E+02  3.438698372E+02  1.250000000E+02  0.00000E+00  9.000E+00
      21     1     1     2   512   502 -2.870813016E+00  1.564870697E+00 -9.854240941E-01  3.414886281E+00  1.490116119E-08  0.00000E+00  9.000E+00
#rwgt            1           1   3.2820737415686398E-002           8      334414           0
</event>
<event>
      5   9999  3.79277E-02  1.14631E+01 -1.00000E+00  1.89143E-01
      21    -1     0     0   502   511  0.000000000E+00  0.000000000E+00  6.134472646E+02  6.134472646E+02  0.000000000E+00  0.00000E+00  9.000E+00
      21    -1     0     0   501   502  0.000000000E+00  0.000000000E+00 -1.654907779E+02  1.654907779E+02  0.000000000E+00  0.00000E+00  9.000E+00
      25     1     1     2     0     0 -8.971830057E+01  5.775558957E+01 -7.164487549E+01  1.792848844E+02  1.250000000E+02  0.00000E+00  9.000E+00
      25     1     1     2     0     0  9.210597292E+01 -6.896724387E+01  1.407415796E+02  2.206199973E+02  1.250000000E+02  0.00000E+00  9.000E+00
      21     1     1     2   501   511 -2.387672344E+00  1.121165429E+01  3.788597826E+02  3.790331609E+02  7.629394531E-06  0.00000E+00  9.000E+00
#rwgt            1           1   4.5395115093554678E-002           8      334782           0
</event>
<event>
      5   9999  3.79277E-02  3.39338E+01 -1.00000E+00  1.49414E-01
      21    -1     0     0   502   501  0.000000000E+00  0.000000000E+00  3.393207626E+02  3.393207626E+02  0.000000000E+00  0.00000E+00  9.000E+00
      21    -1     0     0   501   512  0.000000000E+00  0.000000000E+00 -4.383820306E+02  4.383820306E+02  0.000000000E+00  0.00000E+00  9.000E+00
      25     1     1     2     0     0  1.084838134E+02 -2.895583028E+02 -8.565017557E+01  3.443453224E+02  1.250000000E+02  0.00000E+00  9.000E+00
      25     1     1     2     0     0 -1.376523019E+02  3.068991137E+02  4.915363245E+01  3.621826912E+02  1.250000000E+02  0.00000E+00  9.000E+00
      21     1     1     2   502   512  2.916848855E+01 -1.734081086E+01 -6.256472486E+01  7.117477954E+01  1.168007728E-06  0.00000E+00  9.000E+00
#rwgt            1           1   3.2285956343490456E-002           8      335028           0
</event>
<event>
      5   9999  3.79277E-02  3.73465E+01 -1.00000E+00  1.46713E-01
      21    -1     0     0   502   501  0.000000000E+00  0.000000000E+00  1.126588124E+03  1.126588124E+03  0.000000000E+00  0.00000E+00  9.000E+00
      21    -1     0     0   511   502  0.000000000E+00  0.000000000E+00 -2.634340766E+02  2.634340766E+02  0.000000000E+00  0.00000E+00  9.000E+00
      25     1     1     2     0     0 -2.671904607E+02 -3.309304703E+02  3.892933583E+02  5.899830822E+02  1.250000000E+02  0.00000E+00  9.000E+00
      25     1     1     2     0     0  2.610503149E+02  3.677688020E+02  5.458056332E+02  7.189784057E+02  1.250000000E+02  0.00000E+00  9.000E+00
      21     1     1     2   511   501  6.140145829E+00 -3.683833170E+01 -7.194494439E+01  8.106071242E+01  1.907348633E-06  0.00000E+00  9.000E+00
#rwgt            1           1  0.53658646246589692                8      335280           0
</event>
<event>
      5   9999  3.79277E-02  1.12965E+02 -1.00000E+00  1.21493E-01
       2    -1     0     0   502     0  0.000000000E+00  0.000000000E+00  2.127332573E+03  2.127332573E+03  0.000000000E+00  0.00000E+00  9.000E+00
      21    -1     0     0   501   502  0.000000000E+00  0.000000000E+00 -1.124303203E+02  1.124303203E+02  0.000000000E+00  0.00000E+00  9.000E+00
      25     1     1     2     0     0 -7.362590745E+01 -1.053362795E+02  3.824016372E+01  1.833134369E+02  1.250000000E+02  0.00000E+00  9.000E+00
      25     1     1     2     0     0 -3.923437320E+01  1.004810368E+02  1.404470560E+02  2.167628897E+02  1.250000000E+02  0.00000E+00  9.000E+00
       2     1     1     2   501     0  1.128602807E+02  4.855242633E+00  1.836215033E+03  1.839686567E+03  2.157918644E-05  0.00000E+00  9.000E+00
#rwgt            1           1   4.0502113782094250E-002           8      335463           0
</event>
<event>
      5   9999  3.79277E-02  1.03813E+02 -1.00000E+00  1.23101E-01
       2    -1     0     0   502     0  0.000000000E+00  0.000000000E+00  1.377397357E+03  1.377397357E+03  0.000000000E+00  0.00000E+00  9.000E+00
      21    -1     0     0   501   502  0.000000000E+00  0.000000000E+00 -2.034278328E+02  2.034278328E+02  0.000000000E+00  0.00000E+00  9.000E+00
      25     1     1     2     0     0  7.356200642E+01  6.599297688E+01 -8.580286743E+01  1.809794846E+02  1.250000000E+02  0.00000E+00  9.000E+00
      25     1     1     2     0     0 -1.593727144E+02 -1.244203077E+02  1.412333152E+02  2.764994112E+02  1.250000000E+02  0.00000E+00  9.000E+00
       2     1     1     2   501     0  8.581070798E+01  5.842733079E+01  1.118539077E+03  1.123346294E+03  1.525878906E-05  0.00000E+00  9.000E+00
#rwgt            1           1   4.2617055203746985E-002           8      335541           0
</event>
<event>
      5   9999  3.79277E-02  3.93126E+01 -1.00000E+00  1.45309E-01
      -1    -1     0     0     0   501  0.000000000E+00  0.000000000E+00  1.372134352E+02  1.372134352E+02  0.000000000E+00  0.00000E+00  9.000E+00
      21    -1     0     0   501   502  0.000000000E+00  0.000000000E+00 -8.330188909E+02  8.330188909E+02  0.000000000E+00  0.00000E+00  9.000E+00
      25     1     1     2     0     0  1.120169978E+02  9.522582160E+01 -3.173955015E+02  3.714574933E+02  1.250000000E+02  0.00000E+00  9.000E+00
      25     1     1     2     0     0 -7.441595481E+01 -1.066995100E+02 -4.676591172E+02  5.012510046E+02  1.250000000E+02  0.00000E+00  9.000E+00
      -1     1     1     2     0   502 -3.760104303E+01  1.147368840E+01  8.924916301E+01  9.752382817E+01  1.348699152E-06  0.00000E+00  9.000E+00
#rwgt            1           1   3.7740889517895310E-002           8      335600           0
</event>
<event>
      5   9999  3.79277E-02  1.54211E+01 -1.00000E+00  1.76258E-01
      21    -1     0     0   502   511  0.000000000E+00  0.000000000E+00  8.385720285E+01  8.385720285E+01  0.000000000E+00  0.00000E+00  9.000E+00
      21    -1     0     0   501   502  0.000000000E+00  0.000000000E+00 -1.034797350E+03  1.034797350E+03  0.000000000E+00  0.00000E+00  9.000E+00
      25     1     1     2     0     0  1.340537541E+02 -8.078937950E+01 -8.460158033E+02  8.694050105E+02  1.250000000E+02  0.00000E+00  9.000E+00
      25     1     1     2     0     0 -1.481094087E+02  7.444515498E+01 -8.570479711E+01  2.246080815E+02  1.250000000E+02  0.00000E+00  9.000E+00
      21     1     1     2   501   511  1.405565459E+01  6.344224515E+00 -1.921954638E+01  2.464146046E+01  2.384185791E-07  0.00000E+00  9.000E+00
#rwgt            1           1   3.8642548694125665E-002           8      335695           0
</event>
<event>
      5   9999  3.79277E-02  7.46064E+01 -1.00000E+00  1.29834E-01
      21    -1     0     0   502   501  0.000000000E+00  0.000000000E+00  1.385440888E+02  1.385440888E+02  0.000000000E+00  0.00000E+00  9.000E+00
      21    -1     0     0   512   502  0.000000000E+00  0.000000000E+00 -5.646658925E+02  5.646658925E+02  0.000000000E+00  0.00000E+00  9.000E+00
      25     1     1     2     0     0 -2.388150402E+01  1.127153097E+02 -5.728945013E+01  1.793938359E+02  1.250000000E+02  0.00000E+00  9.000E+00
      25     1     1     2     0     0  5.322018486E+01 -1.813109068E+02 -1.051363606E+02  2.497692682E+02  1.250000000E+02  0.00000E+00  9.000E+00
      21     1     1     2   512   501 -2.933868084E+01  6.859559711E+01 -2.636959930E+02  2.740468771E+02  3.814697266E-06  0.00000E+00  9.000E+00
#rwgt            1           1   3.6509080601030197E-002           8      335956           0
</event>
<event>
      5   9999  3.79277E-02  8.07124E+01 -1.00000E+00  1.28163E-01
      21    -1     0     0   502   501  0.000000000E+00  0.000000000E+00  2.252782650E+02  2.252782650E+02  0.000000000E+00  0.00000E+00  9.000E+00
      21    -1     0     0   501   511  0.000000000E+00  0.000000000E+00 -6.281636814E+02  6.281636814E+02  0.000000000E+00  0.00000E+00  9.000E+00
      25     1     1     2     0     0 -3.096027469E+01 -4.576340452E+00  1.588722385E+02  2.045601860E+02  1.250000000E+02  0.00000E+00  9.000E+00
      25     1     1     2     0     0  9.595519655E+01  5.243187047E+01 -1.334912870E+02  2.130761003E+02  1.250000000E+02  0.00000E+00  9.000E+00
      21     1     1     2   502   511 -6.499492186E+01 -4.785553002E+01 -4.282663678E+02  4.358056602E+02  7.629394531E-06  0.00000E+00  9.000E+00
#rwgt            1           1   4.3578247714838161E-002           8      336001           0
</event>
<event>
      5   9999  7.73083E-02  5.64620E+01 -1.00000E+00  1.36129E-01
       2    -1     0     0   502     0  0.000000000E+00  0.000000000E+00  1.119856537E+03  1.119856537E+03  0.000000000E+00  0.00000E+00  9.000E+00
      21    -1     0     0   501   502  0.000000000E+00  0.000000000E+00 -2.156574610E+03  2.156574610E+03  0.000000000E+00  0.00000E+00  9.000E+00
      25     1     1     2     0     0 -8.411988938E+00 -8.596251518E+01 -7.026441219E+02  7.188839110E+02  1.250000000E+02  0.00000E+00  9.000E+00
      25     1     1     2     0     0 -4.731265974E+01  9.505773382E+01 -1.440437099E+03  1.449744287E+03  1.250000000E+02  0.00000E+00  9.000E+00
       2     1     1     2   501     0  5.572464867E+01 -9.095218641E+00  1.106363148E+03  1.107802949E+03  0.000000000E+00  0.00000E+00  9.000E+00
#rwgt            2          18  0.15013678865182029                8      336242           0
</event>
<event>
      5   9999  3.79277E-02  2.59859E+01 -1.00000E+00  1.57503E-01
      21    -1     0     0   502   501  0.000000000E+00  0.000000000E+00  3.802049248E+02  3.802049248E+02  0.000000000E+00  0.00000E+00  9.000E+00
      21    -1     0     0   511   502  0.000000000E+00  0.000000000E+00 -2.568746842E+02  2.568746842E+02  0.000000000E+00  0.00000E+00  9.000E+00
      25     1     1     2     0     0 -8.747868327E+01  2.439345785E+02  1.454119909E+02  3.223759385E+02  1.250000000E+02  0.00000E+00  9.000E+00
      25     1     1     2     0     0  6.195401087E+01 -2.488089988E+02 -8.493183656E+00  2.853793117E+02  1.250000000E+02  0.00000E+00  9.000E+00
      21     1     1     2   511   501  2.552467239E+01  4.874420327E+00 -1.358856667E+01  2.932435879E+01  4.460403188E-07  0.00000E+00  9.000E+00
#rwgt            1           1   4.0515850149842297E-002           8      336411           0
</event>
<event>
      5   9999  3.79277E-02  6.18972E+01 -1.00000E+00  1.33985E-01
      21    -1     0     0   512   501  0.000000000E+00  0.000000000E+00  1.424350418E+02  1.424350418E+02  0.000000000E+00  0.00000E+00  9.000E+00
      21    -1     0     0   501   502  0.000000000E+00  0.000000000E+00 -7.490817723E+02  7.490817723E+02  0.000000000E+00  0.00000E+00  9.000E+00
      25     1     1     2     0     0  5.951082551E+01  1.876814975E+02 -3.684148341E+02  4.360279496E+02  1.250000000E+02  0.00000E+00  9.000E+00
      25     1     1     2     0     0 -2.870198933E+01 -1.339964938E+02 -3.096671826E+02  3.609676281E+02  1.250000000E+02  0.00000E+00  9.000E+00
      21     1     1     2   512   502 -3.080883618E+01 -5.368500366E+01  7.143528620E+01  9.452123634E+01  1.348699152E-06  0.00000E+00  9.000E+00
#rwgt            1           1   3.7227942534587714E-002           8      336585           0
</event>
<event>
      5   9999  3.79277E-02  1.97950E+01 -1.00000E+00  1.66739E-01
      21    -1     0     0   511   501  0.000000000E+00  0.000000000E+00  7.346065533E+01  7.346065533E+01  0.000000000E+00  0.00000E+00  9.000E+00
      21    -1     0     0   501   502  0.000000000E+00  0.000000000E+00 -7.475394627E+02  7.475394627E+02  0.000000000E+00  0.00000E+00  9.000E+00
      25     1     1     2     0     0 -2.596630390E+01 -1.524561184E+02 -1.762165342E+02  2.656960367E+02  1.250000000E+02  0.00000E+00  9.000E+00
      25     1     1     2     0     0  7.481691827E+00  1.595385782E+02 -4.954603492E+02  5.353638868E+02  1.250000000E+02  0.00000E+00  9.000E+00
      21     1     1     2   511   502  1.848461208E+01 -7.082459812E+00 -2.401923997E+00  1.994019457E+01  1.931411236E-07  0.00000E+00  9.000E+00
#rwgt            1           1   4.0077224748270399E-002           8      336794           0
</event>
<event>
      5   9999  3.79277E-02  1.52289E+02 -1.00000E+00  1.16134E-01
      21    -1     0     0   502   501  0.000000000E+00  0.000000000E+00  5.742174808E+02  5.742174808E+02  0.000000000E+00  0.00000E+00  9.000E+00
      21    -1     0     0   512   502  0.000000000E+00  0.000000000E+00 -2.550426840E+02  2.550426840E+02  0.000000000E+00  0.00000E+00  9.000E+00
      25     1     1     2     0     0  8.865366616E+00  2.003789417E+02  7.645511004E+01  2.483962537E+02  1.250000000E+02  0.00000E+00  9.000E+00
      25     1     1     2     0     0  1.309296126E+02 -1.399705271E+02  3.328397135E+02  4.039078939E+02  1.250000000E+02  0.00000E+00  9.000E+00
      21     1     1     2   512   501 -1.397949793E+02 -6.040841464E+01 -9.012002674E+01  1.769560171E+02  3.162979880E-06  0.00000E+00  9.000E+00
#rwgt            1           1   3.0971513037097081E-002           8      336928           0
</event>
<event>
      5   9999  3.79277E-02  2.05012E+02 -1.00000E+00  1.11258E-01
      21    -1     0     0   502   501  0.000000000E+00  0.000000000E+00  1.316317005E+02  1.316317005E+02  0.000000000E+00  0.00000E+00  9.000E+00
      21    -1     0     0   511   502  0.000000000E+00  0.000000000E+00 -1.145877432E+03  1.145877432E+03  0.000000000E+00  0.00000E+00  9.000E+00
      25     1     1     2     0     0  1.446430143E+02  2.345786997E+02 -4.040094627E+02  5.047746170E+02  1.250000000E+02  0.00000E+00  9.000E+00
      25     1     1     2     0     0  5.970156888E+01 -2.180510508E+02 -2.575039876E+02  3.647517536E+02  1.250000000E+02  0.00000E+00  9.000E+00
      21     1     1     2   511   501 -2.043445832E+02 -1.652764894E+01 -3.527322810E+02  4.079827618E+02  0.000000000E+00  0.00000E+00  9.000E+00
#rwgt            1           1   7.4261371505154702E-002           8      336976           0
</event>
<event>
      5   9999  3.79277E-02  1.94479E+01 -1.00000E+00  1.67378E-01
      21    -1     0     0   502   501  0.000000000E+00  0.000000000E+00  7.984658766E+02  7.984658766E+02  0.000000000E+00  0.00000E+00  9.000E+00
      21    -1     0     0   512   502  0.000000000E+00  0.000000000E+00 -5.050671876E+01  5.050671876E+01  0.000000000E+00  0.00000E+00  9.000E+00
      25     1     1     2     0     0  1.109442000E+01  1.091077200E+02  1.667856363E+02  2.355207617E+02  1.250000000E+02  0.00000E+00  9.000E+00
      25     1     1     2     0     0 -3.024102878E+01 -1.125180047E+02  5.558446665E+02  5.815179400E+02  1.250000000E+02  0.00000E+00  9.000E+00
      21     1     1     2   512   501  1.914660878E+01  3.410284680E+00  2.532885508E+01  3.193389374E+01  4.768371582E-07  0.00000E+00  9.000E+00
#rwgt            1           1   2.6084454760601668E-002           8      337020           0
</event>
<event>
      5   9999  3.79277E-02  2.09465E+01 -1.00000E+00  1.64729E-01
      21    -1     0     0   502   511  0.000000000E+00  0.000000000E+00  3.051771914E+02  3.051771914E+02  0.000000000E+00  0.00000E+00  9.000E+00
      21    -1     0     0   501   502  0.000000000E+00  0.000000000E+00 -5.767713193E+02  5.767713193E+02  0.000000000E+00  0.00000E+00  9.000E+00
      25     1     1     2     0     0  1.074613617E+01  1.348906428E+02 -3.930987515E+02  4.341227861E+02  1.250000000E+02  0.00000E+00  9.000E+00
      25     1     1     2     0     0  2.848085199E+00 -1.189547798E+02 -1.169375948E+02  2.084652305E+02  1.250000000E+02  0.00000E+00  9.000E+00
      21     1     1     2   501   511 -1.359422137E+01 -1.593586292E+01  2.384422185E+02  2.393604941E+02  2.697398305E-06  0.00000E+00  9.000E+00
#rwgt            1           1   3.6340107544155308E-002           8      337249           0
</event>
<event>
      5   9999  3.79277E-02  2.00821E+01 -1.00000E+00  1.66222E-01
      21    -1     0     0   502   501  0.000000000E+00  0.000000000E+00  2.001501662E+03  2.001501662E+03  0.000000000E+00  0.00000E+00  9.000E+00
      21    -1     0     0   501   512  0.000000000E+00  0.000000000E+00 -3.007557285E+01  3.007557285E+01  0.000000000E+00  0.00000E+00  9.000E+00
      25     1     1     2     0     0  1.446935364E+02  8.735256986E+01  1.457130000E+03  1.472215856E+03  1.250000000E+02  0.00000E+00  9.000E+00
      25     1     1     2     0     0 -1.402260856E+02 -6.777370458E+01  4.604459503E+02  5.018885367E+02  1.250000000E+02  0.00000E+00  9.000E+00
      21     1     1     2   502   512 -4.467450806E+00 -1.957886528E+01  5.385013848E+01  5.747284139E+01  0.000000000E+00  0.00000E+00  9.000E+00
#rwgt            1           1  0.11048552572182423                8      337557           0
</event>
<event>
      5   9999  3.79277E-02  6.18009E+01 -1.00000E+00  1.34021E-01
      21    -1     0     0   502   501  0.000000000E+00  0.000000000E+00  9.550148517E+02  9.550148517E+02  0.000000000E+00  0.00000E+00  9.000E+00
      21    -1     0     0   501   511  0.000000000E+00  0.000000000E+00 -9.106947667E+01  9.106947667E+01  0.000000000E+00  0.00000E+00  9.000E+00
      25     1     1     2     0     0 -5.086249821E+01 -4.817767126E+01  1.216386237E+02  1.879601993E+02  1.250000000E+02  0.00000E+00  9.000E+00
      25     1     1     2     0     0  6.144330250E+01  1.090660714E+02  7.702466245E+02  7.903009236E+02  1.250000000E+02  0.00000E+00  9.000E+00
      21     1     1     2   502   511 -1.058080429E+01 -6.088840013E+01 -2.793987316E+01  6.782320549E+01  1.877309769E-06  0.00000E+00  9.000E+00
#rwgt            2          11   1.5067905058159640E-003           8      338019           0
</event>
<event>
      5   9999  3.79277E-02  9.92768E+00 -1.00000E+00  1.96122E-01
      21    -1     0     0   512   501  0.000000000E+00  0.000000000E+00  4.997744406E+01  4.997744406E+01  0.000000000E+00  0.00000E+00  9.000E+00
      21    -1     0     0   501   502  0.000000000E+00  0.000000000E+00 -1.010649016E+03  1.010649016E+03  0.000000000E+00  0.00000E+00  9.000E+00
      25     1     1     2     0     0 -7.919977559E+01  7.609039927E+01 -6.771378709E+02  6.972826181E+02  1.250000000E+02  0.00000E+00  9.000E+00
      25     1     1     2     0     0  8.726417103E+01 -8.188042687E+01 -2.987074705E+02  3.452109395E+02  1.250000000E+02  0.00000E+00  9.000E+00
      21     1     1     2   512   502 -8.064395444E+00  5.790027602E+00  1.517376911E+01  1.813290276E+01  1.039242493E-06  0.00000E+00  9.000E+00
#rwgt            1           1   5.9510812285084508E-002           8      338039           0
</event>
<event>
      5   9999  3.79277E-02  7.21247E+01 -1.00000E+00  1.30566E-01
      21    -1     0     0   502   501  0.000000000E+00  0.000000000E+00  1.514365141E+02  1.514365141E+02  0.000000000E+00  0.00000E+00  9.000E+00
      21    -1     0     0   511   502  0.000000000E+00  0.000000000E+00 -2.658690674E+02  2.658690674E+02  0.000000000E+00  0.00000E+00  9.000E+00
      25     1     1     2     0     0  6.966354124E+01  9.320737570E+01 -2.525994347E+01  1.726374485E+02  1.250000000E+02  0.00000E+00  9.000E+00
      25     1     1     2     0     0 -4.098589275E+01 -2.702906898E+01 -5.790953834E+00  1.344207913E+02  1.250000000E+02  0.00000E+00  9.000E+00
      21     1     1     2   511   501 -2.867764849E+01 -6.617830672E+01 -8.338165601E+01  1.102473418E+02  0.000000000E+00  0.00000E+00  9.000E+00
#rwgt            1           1   6.3561904025089599E-002           8      338220           0
</event>
<event>
      5   9999  3.79277E-02  1.31508E+02 -1.00000E+00  1.18704E-01
      21    -1     0     0   502   501  0.000000000E+00  0.000000000E+00  2.643625006E+02  2.643625006E+02  0.000000000E+00  0.00000E+00  9.000E+00
      21    -1     0     0   501   512  0.000000000E+00  0.000000000E+00 -3.702265798E+02  3.702265798E+02  0.000000000E+00  0.00000E+00  9.000E+00
      25     1     1     2     0     0 -1.204611672E+02 -7.652376923E+01 -8.329876224E+01  2.071966792E+02  1.250000000E+02  0.00000E+00  9.000E+00
      25     1     1     2     0     0  1.472521017E+02 -5.222598254E+01  1.200970177E+02  2.333645825E+02  1.250000000E+02  0.00000E+00  9.000E+00
      21     1     1     2   502   512 -2.679093447E+01  1.287497518E+02 -1.426623346E+02  1.940278188E+02  1.907348633E-06  0.00000E+00  9.000E+00
#rwgt            1           1   3.6230242983985528E-002           8      338282           0
</event>
<event>
      5   9999  3.79277E-02  6.12675E+00 -1.00000E+00  2.24071E-01
      21    -1     0     0   502   501  0.000000000E+00  0.000000000E+00  8.706915010E+02  8.706915010E+02  0.000000000E+00  0.00000E+00  9.000E+00
      21    -1     0     0   511   502  0.000000000E+00  0.000000000E+00 -8.445945888E+01  8.445945888E+01  0.000000000E+00  0.00000E+00  9.000E+00
      25     1     1     2     0     0  1.086495375E+02 -1.132508060E+02  7.038426989E+02  7.318811460E+02  1.250000000E+02  0.00000E+00  9.000E+00
      25     1     1     2     0     0 -1.134731545E+02  1.094732722E+02  8.145378998E+01  2.170720480E+02  1.250000000E+02  0.00000E+00  9.000E+00
      21     1     1     2   511   501  4.823616948E+00  3.777533808E+00  9.355532158E-01  6.197765884E+00  1.421480181E-07  0.00000E+00  9.000E+00
#rwgt            1           1   4.3403575907030027E-002           8      338345           0
</event>
<event>
      5   9999 -3.79277E-02  5.86670E+01 -1.00000E+00  1.35227E-01
      21    -1     0     0   502   501  0.000000000E+00  0.000000000E+00  2.016008222E+02  2.016008222E+02  0.000000000E+00  0.00000E+00  9.000E+00
       2    -1     0     0   501     0  0.000000000E+00  0.000000000E+00 -2.922513532E+02  2.922513532E+02  0.000000000E+00  0.00000E+00  9.000E+00
      25     1     1     2     0     0 -1.251320568E+02  5.620945052E+01 -1.072925888E+02  2.143693858E+02  1.250000000E+02  0.00000E+00  9.000E+00
      25     1     1     2     0     0  7.342998702E+01 -2.848372658E+01  9.937853023E+01  1.780572322E+02  1.250000000E+02  0.00000E+00  9.000E+00
       2     1     1     2   502     0  5.170206982E+01 -2.772572394E+01 -8.273647252E+01  1.014255573E+02  9.536743164E-07  0.00000E+00  9.000E+00
#rwgt            1           1 -0.14787339593892149                8      338799           0
</event>
<event>
      5   9999  3.79277E-02  6.99281E+00 -1.00000E+00  2.15617E-01
      21    -1     0     0   502   501  0.000000000E+00  0.000000000E+00  9.085672211E+01  9.085672211E+01  0.000000000E+00  0.00000E+00  9.000E+00
      21    -1     0     0   501   511  0.000000000E+00  0.000000000E+00 -6.135233895E+02  6.135233895E+02  0.000000000E+00  0.00000E+00  9.000E+00
      25     1     1     2     0     0  7.630460832E+01  8.496072637E+01 -4.621254921E+02  4.921642903E+02  1.250000000E+02  0.00000E+00  9.000E+00
      25     1     1     2     0     0 -7.000425026E+01 -8.799467896E+01 -1.798851796E+01  1.690924166E+02  1.250000000E+02  0.00000E+00  9.000E+00
      21     1     1     2   502   511 -6.300358062E+00  3.033952589E+00 -4.255265735E+01  4.312340464E+01  4.768371582E-07  0.00000E+00  9.000E+00
#rwgt            1           1   4.5499344187081417E-002           8      338885           0
</event>
<event>
      5   9999  3.79277E-02  1.41582E+02 -1.00000E+00  1.17396E-01
      21    -1     0     0   502   501  0.000000000E+00  0.000000000E+00  4.918067797E+02  4.918067797E+02  0.000000000E+00  0.00000E+00  9.000E+00
       1    -1     0     0   501     0  0.000000000E+00  0.000000000E+00 -9.132321418E+02  9.132321418E+02  0.000000000E+00  0.00000E+00  9.000E+00
      25     1     1     2     0     0 -4.688348221E+01 -1.054460047E+02 -1.355912906E+01  1.706627399E+02  1.250000000E+02  0.00000E+00  9.000E+00
      25     1     1     2     0     0 -1.752521997E+01  2.315296537E+02  3.640837452E+02  4.495498719E+02  1.250000000E+02  0.00000E+00  9.000E+00
       1     1     1     2   502     0  6.440870218E+01 -1.260836490E+02 -7.719499782E+02  7.848263097E+02  0.000000000E+00  0.00000E+00  9.000E+00
#rwgt            1           1   4.1389210525067527E-002           8      339243           0
</event>
<event>
      5   9999  3.79277E-02  3.76036E+01 -1.00000E+00  1.46524E-01
      21    -1     0     0   502   511  0.000000000E+00  0.000000000E+00  3.908351934E+02  3.908351934E+02  0.000000000E+00  0.00000E+00  9.000E+00
      21    -1     0     0   501   502  0.000000000E+00  0.000000000E+00 -2.304671920E+02  2.304671920E+02  0.000000000E+00  0.00000E+00  9.000E+00
      25     1     1     2     0     0  8.517083437E+01  2.016153740E+02  4.589230268E+01  2.561912050E+02  1.250000000E+02  0.00000E+00  9.000E+00
      25     1     1     2     0     0 -1.124553350E+02 -1.757389543E+02 -1.466710879E+00  2.432232178E+02  1.250000000E+02  0.00000E+00  9.000E+00
      21     1     1     2   501   511  2.728450063E+01 -2.587641971E+01  1.159424097E+02  1.218879626E+02  1.348699152E-06  0.00000E+00  9.000E+00
#rwgt            1           1   3.5014759387064665E-002           8      339282           0
</event>
<event>
      5   9999  3.79277E-02  1.12735E+02 -1.00000E+00  1.21531E-01
      21    -1     0     0   502   501  0.000000000E+00  0.000000000E+00  7.323143634E+02  7.323143634E+02  0.000000000E+00  0.00000E+00  9.000E+00
      21    -1     0     0   512   502  0.000000000E+00  0.000000000E+00 -3.109028144E+02  3.109028144E+02  0.000000000E+00  0.00000E+00  9.000E+00
      25     1     1     2     0     0  7.118137103E+00  2.478139758E+02  5.047472636E+02  5.760705118E+02  1.250000000E+02  0.00000E+00  9.000E+00
      25     1     1     2     0     0 -1.076107330E+02 -1.967214528E+02  7.981106488E+01  2.688386243E+02  1.250000000E+02  0.00000E+00  9.000E+00
      21     1     1     2   512   501  1.004925959E+02 -5.109252306E+01 -1.631467795E+02  1.983080417E+02  3.814697266E-06  0.00000E+00  9.000E+00
#rwgt            1           1   3.8267962004682292E-002           8      339604           0
</event>
<event>
      5   9999  3.79277E-02  6.82692E+00 -1.00000E+00  2.17102E-01
      21    -1     0     0   502   511  0.000000000E+00  0.000000000E+00  8.943861212E+02  8.943861212E+02  0.000000000E+00  0.00000E+00  9.000E+00
      21    -1     0     0   501   502  0.000000000E+00  0.000000000E+00 -5.953540117E+01  5.953540117E+01  0.000000000E+00  0.00000E+00  9.000E+00
      25     1     1     2     0     0  5.758409008E+01  1.817772002E+02  3.844323719E+02  4.469587526E+02  1.250000000E+02  0.00000E+00  9.000E+00
      25     1     1     2     0     0 -6.118037237E+01 -1.759742999E+02  4.242653485E+02  4.799334101E+02  1.250000000E+02  0.00000E+00  9.000E+00
      21     1     1     2   501   511  3.596282289E+00 -5.802900275E+00  2.615299958E+01  2.702935968E+01  4.768371582E-07  0.00000E+00  9.000E+00
#rwgt            1           1   4.1016660881541406E-002           8      339664           0
</event>
<event>
      5   9999  3.79277E-02  9.94770E+01 -1.00000E+00  1.23930E-01
      21    -1     0     0   502   501  0.000000000E+00  0.000000000E+00  9.357019168E+02  9.357019168E+02  0.000000000E+00  0.00000E+00  9.000E+00
      21    -1     0     0   501   512  0.000000000E+00  0.000000000E+00 -9.858865122E+01  9.858865122E+01  0.000000000E+00  0.00000E+00  9.000E+00
      25     1     1     2     0     0  1.798864093E+02 -4.370378499E+01  4.008487802E+02  4.588833029E+02  1.250000000E+02  0.00000E+00  9.000E+00
      25     1     1     2     0     0 -1.989246732E+02 -5.393438937E+01  4.046887266E+02  4.710391803E+02  1.250000000E+02  0.00000E+00  9.000E+00
      21     1     1     2   502   512  1.903826397E+01  9.763817436E+01  3.157575878E+01  1.043680848E+02  1.507891493E-06  0.00000E+00  9.000E+00
#rwgt            1           1   4.4059557920505941E-002           8      339982           0
</event>
<event>
      5   9999  3.79277E-02  1.74800E+01 -1.00000E+00  1.71344E-01
      21    -1     0     0   502   511  0.000000000E+00  0.000000000E+00  7.646134537E+01  7.646134537E+01  0.000000000E+00  0.00000E+00  9.000E+00
      21    -1     0     0   501   502  0.000000000E+00  0.000000000E+00 -2.044735390E+03  2.044735390E+03  0.000000000E+00  0.00000E+00  9.000E+00
      25     1     1     2     0     0  4.145883755E+00  1.624921866E+02 -1.187079157E+03  1.204658800E+03  1.250000000E+02  0.00000E+00  9.000E+00
      25     1     1     2     0     0 -1.435284550E+01 -1.483017990E+02 -8.363573066E+02  8.586722145E+02  1.250000000E+02  0.00000E+00  9.000E+00
      21     1     1     2   501   511  1.020696175E+01 -1.419038761E+01  5.516241909E+01  5.786572085E+01  4.523674479E-06  0.00000E+00  9.000E+00
#rwgt            1           1   9.0918566209707480E-002           8      340101           0
</event>
<event>
      5   9999  3.79277E-02  6.42763E+01 -1.00000E+00  1.33125E-01
      21    -1     0     0   512   501  0.000000000E+00  0.000000000E+00  1.525502298E+02  1.525502298E+02  0.000000000E+00  0.00000E+00  9.000E+00
      21    -1     0     0   501   502  0.000000000E+00  0.000000000E+00 -7.455131674E+02  7.455131674E+02  0.000000000E+00  0.00000E+00  9.000E+00
      25     1     1     2     0     0  2.327712594E+02  1.333889772E+01 -3.573162850E+02  4.445900504E+02  1.250000000E+02  0.00000E+00  9.000E+00
      25     1     1     2     0     0 -2.969155506E+02 -1.745683365E+01 -1.874074094E+02  3.731087272E+02  1.250000000E+02  0.00000E+00  9.000E+00
      21     1     1     2   512   502  6.414429118E+01  4.117935933E+00 -4.823924319E+01  8.036461952E+01  1.784161275E-06  0.00000E+00  9.000E+00
#rwgt            1           1   3.9326379754162533E-002           8      340327           0
</event>
<event>
      5   9999  3.79277E-02  3.71213E+01 -1.00000E+00  1.46881E-01
       5    -1     0     0   502     0  0.000000000E+00  0.000000000E+00  1.040277387E+02  1.040277387E+02  0.000000000E+00  0.00000E+00  9.000E+00
      21    -1     0     0   501   502  0.000000000E+00  0.000000000E+00 -7.772643448E+02  7.772643448E+02  0.000000000E+00  0.00000E+00  9.000E+00
      25     1     1     2     0     0  1.054059065E+02 -1.227111248E+02 -3.597285323E+02  4.137608515E+02  1.250000000E+02  0.00000E+00  9.000E+00
      25     1     1     2     0     0 -1.204338834E+02  8.876778272E+01 -3.591777232E+02  4.086779617E+02  1.250000000E+02  0.00000E+00  9.000E+00
       5     1     1     2   501     0  1.502797697E+01  3.394334212E+01  4.566964934E+01  5.885327040E+01  1.651812370E-06  0.00000E+00  9.000E+00
#rwgt            1           1   3.7280755304939760E-002           8      340509           0
</event>
<event>
      5   9999  3.79277E-02  8.07952E+01 -1.00000E+00  1.28142E-01
      21    -1     0     0   502   501  0.000000000E+00  0.000000000E+00  1.904372324E+02  1.904372324E+02  0.000000000E+00  0.00000E+00  9.000E+00
      21    -1     0     0   501   511  0.000000000E+00  0.000000000E+00 -3.063134671E+02  3.063134671E+02  0.000000000E+00  0.00000E+00  9.000E+00
      25     1     1     2     0     0 -4.791949500E+01  4.784056675E+01  8.099187751E+01  1.636144311E+02  1.250000000E+02  0.00000E+00  9.000E+00
      25     1     1     2     0     0  1.285095246E+02 -5.359549819E+01 -1.492856477E+02  2.393708001E+02  1.250000000E+02  0.00000E+00  9.000E+00
      21     1     1     2   502   511 -8.059002963E+01  5.754931436E+00 -4.758246464E+01  9.376546834E+01  1.507891493E-06  0.00000E+00  9.000E+00
#rwgt            1           1   2.7553528118159212E-002           8      340751           0
</event>
<event>
      5   9999  3.79277E-02  1.08595E+02 -1.00000E+00  1.22238E-01
      21    -1     0     0   502   501  0.000000000E+00  0.000000000E+00  2.679547795E+02  2.679547795E+02  0.000000000E+00  0.00000E+00  9.000E+00
      21    -1     0     0   501   512  0.000000000E+00  0.000000000E+00 -3.840072227E+02  3.840072227E+02  0.000000000E+00  0.00000E+00  9.000E+00
      25     1     1     2     0     0 -5.244023463E-01 -1.702101254E+02  1.642326549E+02  2.675240676E+02  1.250000000E+02  0.00000E+00  9.000E+00
      25     1     1     2     0     0  4.999892393E+01  7.353995850E+01 -1.813775098E+02  2.375517185E+02  1.250000000E+02  0.00000E+00  9.000E+00
      21     1     1     2   502   512 -4.947452159E+01  9.667016694E+01 -9.890758832E+01  1.468862161E+02  1.348699152E-06  0.00000E+00  9.000E+00
#rwgt            1           1   4.3368169536024355E-002           8      340911           0
</event>
<event>
      5   9999  3.79277E-02  1.61447E+01 -1.00000E+00  1.74427E-01
      21    -1     0     0   502   501  0.000000000E+00  0.000000000E+00  1.604055865E+01  1.604055865E+01  0.000000000E+00  0.00000E+00  9.000E+00
      21    -1     0     0   511   502  0.000000000E+00  0.000000000E+00 -2.292537391E+03  2.292537391E+03  0.000000000E+00  0.00000E+00  9.000E+00
      25     1     1     2     0     0 -1.609608347E+01 -4.118366923E+01 -3.967776569E+02  4.183451775E+02  1.250000000E+02  0.00000E+00  9.000E+00
      25     1     1     2     0     0  8.630382300E+00  5.549853216E+01 -8.993549227E+02  9.097355922E+02  1.250000000E+02  0.00000E+00  9.000E+00
      21     1     1     2   511   501  7.465701174E+00 -1.431486293E+01 -9.803642530E+02  9.804971803E+02  1.078959322E-05  0.00000E+00  9.000E+00
#rwgt            1           1   8.3550729232858292E-002           8      340999           0
</event>
<event>
      5   9999  3.79277E-02  5.23818E+01 -1.00000E+00  1.37932E-01
      21    -1     0     0   502   501  0.000000000E+00  0.000000000E+00  1.263441443E+03  1.263441443E+03  0.000000000E+00  0.00000E+00  9.000E+00
      21    -1     0     0   512   502  0.000000000E+00  0.000000000E+00 -5.666596687E+01  5.666596687E+01  0.000000000E+00  0.00000E+00  9.000E+00
      25     1     1     2     0     0  1.294941957E+02  5.410177881E+01  8.834818402E+02  9.032501930E+02  1.250000000E+02  0.00000E+00  9.000E+00
      25     1     1     2     0     0 -1.304817643E+02 -1.729310338E+00  3.159336232E+02  3.639608984E+02  1.250000000E+02  0.00000E+00  9.000E+00
      21     1     1     2   512   501  9.875686006E-01 -5.237246848E+01  7.360013068E+00  5.289631876E+01  8.760057960E-07  0.00000E+00  9.000E+00
#rwgt            1           1   3.1231652624070079E-002           8      341156           0
</event>
<event>
      5   9999 -3.79277E-02  5.86634E+01 -1.00000E+00  1.35228E-01
      21    -1     0     0   502   511  0.000000000E+00  0.000000000E+00  7.593047371E+01  7.593047371E+01  0.000000000E+00  0.00000E+00  9.000E+00
      21    -1     0     0   501   502  0.000000000E+00  0.000000000E+00 -6.611875234E+02  6.611875234E+02  0.000000000E+00  0.00000E+00  9.000E+00
      25     1     1     2     0     0 -8.914306581E+01 -5.919321306E+00 -3.876232590E+02  4.169632063E+02  1.250000000E+02  0.00000E+00  9.000E+00
      25     1     1     2     0     0  1.449585525E+02  2.397537647E+01 -1.580666074E+02  2.493949739E+02  1.250000000E+02  0.00000E+00  9.000E+00
      21     1     1     2   501   511 -5.581548673E+01 -1.805605517E+01 -3.956718333E+01  7.075981687E+01  9.536743164E-07  0.00000E+00  9.000E+00
#rwgt            1           1  -4.7224865807143140E-003           8      341381           0
</event>
<event>
      5   9999  3.79277E-02  5.48835E+01 -1.00000E+00  1.36805E-01
      21    -1     0     0   502   501  0.000000000E+00  0.000000000E+00  1.878501354E+02  1.878501354E+02  0.000000000E+00  0.00000E+00  9.000E+00
      21    -1     0     0   512   502  0.000000000E+00  0.000000000E+00 -5.292356926E+02  5.292356926E+02  0.000000000E+00  0.00000E+00  9.000E+00
      25     1     1     2     0     0 -3.306323391E+01 -6.304248966E+01 -7.384030395E+01  1.616939190E+02  1.250000000E+02  0.00000E+00  9.000E+00
      25     1     1     2     0     0  8.588245823E+01  7.795328560E+01  9.057961107E+01  1.930859324E+02  1.250000000E+02  0.00000E+00  9.000E+00
      21     1     1     2   512   501 -5.281922432E+01 -1.491079593E+01 -3.581248643E+02  3.623059766E+02  3.814697266E-06  0.00000E+00  9.000E+00
#rwgt            1           1   5.2261720589895672E-002           8      341455           0
</event>
<event>
      5   9999  3.79277E-02  1.48010E+01 -1.00000E+00  1.77932E-01
      21    -1     0     0   502   501  0.000000000E+00  0.000000000E+00  5.229463605E+02  5.229463605E+02  0.000000000E+00  0.00000E+00  9.000E+00
      21    -1     0     0   501   511  0.000000000E+00  0.000000000E+00 -9.612706427E+01  9.612706427E+01  0.000000000E+00  0.00000E+00  9.000E+00
      25     1     1     2     0     0 -1.789271151E+02 -1.005080696E+01  2.277776708E+02  3.156320620E+02  1.250000000E+02  0.00000E+00  9.000E+00
      25     1     1     2     0     0  1.641327337E+02  9.608394093E+00  2.013729753E+02  2.884578838E+02  1.250000000E+02  0.00000E+00  9.000E+00
      21     1     1     2   502   511  1.479438140E+01  4.424128711E-01 -2.331349941E+00  1.498347899E+01  3.097148194E-07  0.00000E+00  9.000E+00
#rwgt            1           1   3.2035650399749649E-002           8      341692           0
</event>
<event>
      5   9999  3.79277E-02  4.52227E+01 -1.00000E+00  1.41610E-01
      21    -1     0     0   502   501  0.000000000E+00  0.000000000E+00  3.311832836E+01  3.311832836E+01  0.000000000E+00  0.00000E+00  9.000E+00
      21    -1     0     0   512   502  0.000000000E+00  0.000000000E+00 -1.691400966E+03  1.691400966E+03  0.000000000E+00  0.00000E+00  9.000E+00
      25     1     1     2     0     0 -8.054091297E+01  4.856745725E+01 -2.020951156E+02  2.555642235E+02  1.250000000E+02  0.00000E+00  9.000E+00
      25     1     1     2     0     0  3.864039380E+01 -3.155452857E+01 -1.280005095E+03  1.287061309E+03  1.250000000E+02  0.00000E+00  9.000E+00
      21     1     1     2   512   501  4.190051918E+01 -1.701292869E+01 -1.761824273E+02  1.818937628E+02  3.303624740E-06  0.00000E+00  9.000E+00
#rwgt            1           1   4.8537579960770176E-002           8      341945           0
</event>
<event>
      5   9999  3.79277E-02  5.09734E+01 -1.00000E+00  1.38599E-01
      21    -1     0     0   511   501  0.000000000E+00  0.000000000E+00  1.546513854E+02  1.546513854E+02  0.000000000E+00  0.00000E+00  9.000E+00
      21    -1     0     0   501   502  0.000000000E+00  0.000000000E+00 -4.692488495E+02  4.692488495E+02  0.000000000E+00  0.00000E+00  9.000E+00
      25     1     1     2     0     0  1.898594913E+02 -4.477753498E+01 -2.698688284E+02  3.556765927E+02  1.250000000E+02  0.00000E+00  9.000E+00
      25     1     1     2     0     0 -1.719361732E+02 -2.940847586E+00 -2.722632801E+01  2.143291142E+02  1.250000000E+02  0.00000E+00  9.000E+00
      21     1     1     2   511   502 -1.792331811E+01  4.771838257E+01 -1.750230769E+01  5.389452794E+01  8.920806376E-07  0.00000E+00  9.000E+00
#rwgt            1           1   4.0118398691464878E-002           8      342114           0
</event>
<event>
      5   9999  3.79277E-02  8.13397E+01 -1.00000E+00  1.28001E-01
      21    -1     0     0   512   501  0.000000000E+00  0.000000000E+00  4.566902710E+02  4.566902710E+02  0.000000000E+00  0.00000E+00  9.000E+00
      21    -1     0     0   501   502  0.000000000E+00  0.000000000E+00 -1.877000500E+02  1.877000500E+02  0.000000000E+00  0.00000E+00  9.000E+00
      25     1     1     2     0     0  1.179680510E+01 -1.094670299E+01 -1.266837149E+02  1.786973938E+02  1.250000000E+02  0.00000E+00  9.000E+00
      25     1     1     2     0     0 -7.212838798E+01  6.550170384E+01  2.109354912E+02  2.638404044E+02  1.250000000E+02  0.00000E+00  9.000E+00
      21     1     1     2   512   502  6.033158288E+01 -5.455500085E+01  1.847384447E+02  2.018525228E+02  3.814697266E-06  0.00000E+00  9.000E+00
#rwgt            1           1   3.3204208403777212E-002           8      342465           0
</event>
<event>
      5   9999  3.79277E-02  8.79047E+00 -1.00000E+00  2.02460E-01
      21    -1     0     0   502   501  0.000000000E+00  0.000000000E+00  1.699365792E+03  1.699365792E+03  0.000000000E+00  0.00000E+00  9.000E+00
      21    -1     0     0   501   511  0.000000000E+00  0.000000000E+00 -2.971728263E+02  2.971728263E+02  0.000000000E+00  0.00000E+00  9.000E+00
      25     1     1     2     0     0  1.787897349E+02  1.498070249E+02  8.182232622E+02  8.599547783E+02  1.250000000E+02  0.00000E+00  9.000E+00
      25     1     1     2     0     0 -1.873044323E+02 -1.519915818E+02  8.387497664E+02  8.816521774E+02  1.250000000E+02  0.00000E+00  9.000E+00
      21     1     1     2   502   511  8.514697367E+00  2.184556846E+00 -2.547800626E+02  2.549316628E+02  6.607249480E-06  0.00000E+00  9.000E+00
#rwgt            1           1   3.7788774217836142E-002           8      342674           0
</event>
<event>
      5   9999  3.79277E-02  2.50660E+01 -1.00000E+00  1.58665E-01
      21    -1     0     0   502   512  0.000000000E+00  0.000000000E+00  1.065325078E+03  1.065325078E+03  0.000000000E+00  0.00000E+00  9.000E+00
      21    -1     0     0   501   502  0.000000000E+00  0.000000000E+00 -5.979324294E+01  5.979324294E+01  0.000000000E+00  0.00000E+00  9.000E+00
      25     1     1     2     0     0  5.453558179E+01  9.969841647E+01  1.837426080E+02  2.496001801E+02  1.250000000E+02  0.00000E+00  9.000E+00
      25     1     1     2     0     0 -3.035950661E+01 -1.063183065E+02  2.351853926E+02  2.883790055E+02  1.250000000E+02  0.00000E+00  9.000E+00
      21     1     1     2   501   512 -2.417607518E+01  6.619890014E+00  5.866038345E+02  5.871391353E+02  7.629394531E-06  0.00000E+00  9.000E+00
#rwgt            1           1   3.9786971871733162E-002           8      342887           0
</event>
<event>
      5   9999  3.79277E-02  1.47184E+01 -1.00000E+00  1.78162E-01
      21    -1     0     0   502   501  0.000000000E+00  0.000000000E+00  1.538754765E+02  1.538754765E+02  0.000000000E+00  0.00000E+00  9.000E+00
      21    -1     0     0   511   502  0.000000000E+00  0.000000000E+00 -2.948109412E+02  2.948109412E+02  0.000000000E+00  0.00000E+00  9.000E+00
      25     1     1     2     0     0 -1.177343887E+02  6.901990618E+01 -1.423728437E+02  2.334955254E+02  1.250000000E+02  0.00000E+00  9.000E+00
      25     1     1     2     0     0  1.205298961E+02 -8.347040015E+01  1.743545830E+01  1.934522131E+02  1.250000000E+02  0.00000E+00  9.000E+00
      21     1     1     2   511   501 -2.795507396E+00  1.445049397E+01 -1.599807918E+01  2.173867924E+01  0.000000000E+00  0.00000E+00  9.000E+00
#rwgt            1           1   6.0852648271865213E-002           8      343051           0
</event>
<event>
      5   9999  3.79277E-02  1.36827E+02 -1.00000E+00  1.17998E-01
      21    -1     0     0   502   501  0.000000000E+00  0.000000000E+00  2.813161588E+02  2.813161588E+02  0.000000000E+00  0.00000E+00  9.000E+00
      21    -1     0     0   512   502  0.000000000E+00  0.000000000E+00 -2.572915511E+02  2.572915511E+02  0.000000000E+00  0.00000E+00  9.000E+00
      25     1     1     2     0     0  9.360400835E+01  1.429726219E+02 -1.343363761E+01  2.121516995E+02  1.250000000E+02  0.00000E+00  9.000E+00
      25     1     1     2     0     0 -2.935380558E+01 -2.216871714E+01  1.109533561E+02  1.711395488E+02  1.250000000E+02  0.00000E+00  9.000E+00
      21     1     1     2   512   501 -6.425020277E+01 -1.208039047E+02 -7.349511078E+01  1.553164617E+02  1.348699152E-06  0.00000E+00  9.000E+00
#rwgt            1           1   4.0641593422058369E-003           8      343326           0
</event>
<event>
      5   9999  3.79277E-02  9.56598E+01 -1.00000E+00  1.24701E-01
      21    -1     0     0   502   501  0.000000000E+00  0.000000000E+00  1.357914531E+03  1.357914531E+03  0.000000000E+00  0.00000E+00  9.000E+00
      21    -1     0     0   501   511  0.000000000E+00  0.000000000E+00 -6.696419829E+01  6.696419829E+01  0.000000000E+00  0.00000E+00  9.000E+00
      25     1     1     2     0     0  1.145796893E+02 -1.204015017E+02  2.665358333E+02  3.380700774E+02  1.250000000E+02  0.00000E+00  9.000E+00
      25     1     1     2     0     0 -3.559260485E+01  1.743630288E+02  9.193410017E+02  9.447127483E+02  1.250000000E+02  0.00000E+00  9.000E+00
      21     1     1     2   502   511 -7.898708445E+01 -5.396152708E+01  1.050734980E+02  1.420959039E+02  2.336015456E-06  0.00000E+00  9.000E+00
#rwgt            1           1   3.0234498632096662E-002           8      343437           0
</event>
<event>
      5   9999  3.79277E-02  1.50036E+01 -1.00000E+00  1.77374E-01
      21    -1     0     0   502   512  0.000000000E+00  0.000000000E+00  6.753981380E+01  6.753981380E+01  0.000000000E+00  0.00000E+00  9.000E+00
      21    -1     0     0   501   502  0.000000000E+00  0.000000000E+00 -6.662572024E+02  6.662572024E+02  0.000000000E+00  0.00000E+00  9.000E+00
      25     1     1     2     0     0 -5.170888307E+01 -3.335700186E+01 -5.416518468E+02  5.592836680E+02  1.250000000E+02  0.00000E+00  9.000E+00
      25     1     1     2     0     0  6.619415224E+01  2.944734158E+01 -6.395912327E+01  1.580018391E+02  1.250000000E+02  0.00000E+00  9.000E+00
      21     1     1     2   501   512 -1.448526917E+01  3.909660282E+00  6.893581463E+00  1.651150907E+01  5.397430145E-07  0.00000E+00  9.000E+00
#rwgt            1           1   4.1955016230365010E-002           8      343508           0
</event>
<event>
      5   9999  3.79277E-02  1.05322E+02 -1.00000E+00  1.22823E-01
      21    -1     0     0   511   501  0.000000000E+00  0.000000000E+00  1.386619839E+02  1.386619839E+02  0.000000000E+00  0.00000E+00  9.000E+00
      21    -1     0     0   501   502  0.000000000E+00  0.000000000E+00 -6.300046500E+02  6.300046500E+02  0.000000000E+00  0.00000E+00  9.000E+00
      25     1     1     2     0     0 -1.416806512E+02 -1.307818878E+02 -1.480979075E+02  2.733775764E+02  1.250000000E+02  0.00000E+00  9.000E+00
      25     1     1     2     0     0  5.374475120E+01  7.281614974E+01 -3.571382435E+02  3.890545141E+02  1.250000000E+02  0.00000E+00  9.000E+00
      21     1     1     2   511   502  8.793589997E+01  5.796573803E+01  1.389348489E+01  1.062345434E+02  2.236564522E-06  0.00000E+00  9.000E+00
#rwgt            1           1  0.36448846425131654                8      343737           0
</event>
<event>
      5   9999  3.79277E-02  7.76551E+01 -1.00000E+00  1.28978E-01
      21    -1     0     0   502   501  0.000000000E+00  0.000000000E+00  8.157827710E+01  8.157827710E+01  0.000000000E+00  0.00000E+00  9.000E+00
       2    -1     0     0   501     0  0.000000000E+00  0.000000000E+00 -1.552289658E+03  1.552289658E+03  0.000000000E+00  0.00000E+00  9.000E+00
      25     1     1     2     0     0  1.261673945E+01  1.762410142E+02 -9.424511245E+01  2.360661315E+02  1.250000000E+02  0.00000E+00  9.000E+00
      25     1     1     2     0     0 -1.186891618E+01 -9.858948547E+01 -7.692952045E+02  7.856849684E+02  1.250000000E+02  0.00000E+00  9.000E+00
       2     1     1     2   502     0 -7.478232652E-01 -7.765152872E+01 -6.071710644E+02  6.121168357E+02  7.629394531E-06  0.00000E+00  9.000E+00
#rwgt            1           1   4.1646775752355210E-002           8      343785           0
</event>
<event>
      5   9999  3.79277E-02  2.89817E+01 -1.00000E+00  1.54089E-01
      21    -1     0     0   502   501  0.000000000E+00  0.000000000E+00  2.480400398E+02  2.480400398E+02  0.000000000E+00  0.00000E+00  9.000E+00
      21    -1     0     0   511   502  0.000000000E+00  0.000000000E+00 -2.027533416E+02  2.027533416E+02  0.000000000E+00  0.00000E+00  9.000E+00
      25     1     1     2     0     0  7.511587984E+01  5.209090967E+01  1.755116991E+02  2.340624164E+02  1.250000000E+02  0.00000E+00  9.000E+00
      25     1     1     2     0     0 -6.769710477E+01 -2.407480575E+01 -1.058612248E+02  1.788689274E+02  1.250000000E+02  0.00000E+00  9.000E+00
      21     1     1     2   511   501 -7.418775071E+00 -2.801610393E+01 -2.436377612E+01  3.786203758E+01  3.371747881E-07  0.00000E+00  9.000E+00
#rwgt            1           1   2.5016486263960629E-002           8      343873           0
</event>
<event>
      5   9999  3.79277E-02  7.90710E+01 -1.00000E+00  1.28595E-01
      -1    -1     0     0     0   501  0.000000000E+00  0.000000000E+00  1.157490721E+03  1.157490721E+03  0.000000000E+00  0.00000E+00  9.000E+00
      21    -1     0     0   501   502  0.000000000E+00  0.000000000E+00 -3.659629674E+02  3.659629674E+02  0.000000000E+00  0.00000E+00  9.000E+00
      25     1     1     2     0     0  6.398018844E+01  1.041531447E+02 -1.010661419E+02  2.019423361E+02  1.250000000E+02  0.00000E+00  9.000E+00
      25     1     1     2     0     0 -6.279879948E-02 -1.507020146E+02 -1.679888278E+02  2.579851690E+02  1.250000000E+02  0.00000E+00  9.000E+00
      -1     1     1     2     0   502 -6.391738964E+01  4.654886993E+01  1.060582723E+03  1.063526183E+03  1.525878906E-05  0.00000E+00  9.000E+00
#rwgt            1           1   3.5025824883030694E-002           8      344113           0
</event>
<event>
      5   9999  3.79277E-02  4.23044E+01 -1.00000E+00  1.43347E-01
      21    -1     0     0   511   501  0.000000000E+00  0.000000000E+00  2.088693568E+02  2.088693568E+02  0.000000000E+00  0.00000E+00  9.000E+00
      21    -1     0     0   501   502  0.000000000E+00  0.000000000E+00 -5.003444858E+02  5.003444858E+02  0.000000000E+00  0.00000E+00  9.000E+00
      25     1     1     2     0     0 -3.122021976E+01  5.584197172E+01 -3.280985250E+02  3.568846733E+02  1.250000000E+02  0.00000E+00  9.000E+00
      25     1     1     2     0     0  7.346663790E+01 -5.362764717E+01 -1.164337801E+02  1.935331925E+02  1.250000000E+02  0.00000E+00  9.000E+00
      21     1     1     2   511   502 -4.224641814E+01 -2.214324547E+00  1.530571761E+02  1.587959768E+02  4.264961200E-06  0.00000E+00  9.000E+00
#rwgt            1           1   4.0977268383185425E-002           8      344220           0
</event>
<event>
      5   9999  3.79277E-02  5.29682E+01 -1.00000E+00  1.37661E-01
      21    -1     0     0   502   501  0.000000000E+00  0.000000000E+00  2.223041375E+02  2.223041375E+02  0.000000000E+00  0.00000E+00  9.000E+00
      21    -1     0     0   501   512  0.000000000E+00  0.000000000E+00 -3.644417563E+02  3.644417563E+02  0.000000000E+00  0.00000E+00  9.000E+00
      25     1     1     2     0     0 -8.153449604E+01  1.094367353E+01  1.534122394E+02  2.143080802E+02  1.250000000E+02  0.00000E+00  9.000E+00
      25     1     1     2     0     0  1.020792077E+02 -5.976522495E+01 -2.063402331E+02  2.686881809E+02  1.250000000E+02  0.00000E+00  9.000E+00
      21     1     1     2   502   512 -2.054471164E+01  4.882155142E+01 -8.920962517E+01  1.037496327E+02  9.536743164E-07  0.00000E+00  9.000E+00
#rwgt            1           1   2.6591333451614040E-002           8      344404           0
</event>
<event>
      5   9999  3.79277E-02  7.57796E+01 -1.00000E+00  1.29499E-01
      21    -1     0     0   502   511  0.000000000E+00  0.000000000E+00  3.669516342E+02  3.669516342E+02  0.000000000E+00  0.00000E+00  9.000E+00
      21    -1     0     0   501   502  0.000000000E+00  0.000000000E+00 -2.382304241E+02  2.382304241E+02  0.000000000E+00  0.00000E+00  9.000E+00
      25     1     1     2     0     0  4.859566320E+01 -4.929901842E+01  1.104584844E+02  1.806045638E+02  1.250000000E+02  0.00000E+00  9.000E+00
      25     1     1     2     0     0 -1.125489046E+02  8.995029379E+01 -1.482835156E+02  2.416015569E+02  1.250000000E+02  0.00000E+00  9.000E+00
      21     1     1     2   501   511  6.395324138E+01 -4.065127537E+01  1.665462413E+02  1.829759377E+02  2.697398305E-06  0.00000E+00  9.000E+00
#rwgt            1           1   5.3382426527198150E-002           8      344821           0
</event>
<event>
      5   9999  3.79277E-02  1.09907E+02 -1.00000E+00  1.22010E-01
       2    -1     0     0   502     0  0.000000000E+00  0.000000000E+00  2.595828707E+03  2.595828707E+03  0.000000000E+00  0.00000E+00  9.000E+00
      21    -1     0     0   501   502  0.000000000E+00  0.000000000E+00 -2.014155049E+02  2.014155049E+02  0.000000000E+00  0.00000E+00  9.000E+00
      25     1     1     2     0     0 -1.938850719E+02  7.150795019E+00  3.696070223E+02  4.357486729E+02  1.250000000E+02  0.00000E+00  9.000E+00
      25     1     1     2     0     0  1.332702631E+02  8.453005507E+01 -1.062269529E+02  2.276300919E+02  1.250000000E+02  0.00000E+00  9.000E+00
       2     1     1     2   501     0  6.061480885E+01 -9.168085009E+01  2.131033132E+03  2.133865447E+03  0.000000000E+00  0.00000E+00  9.000E+00
#rwgt            1           1   1.7696713611872521E-002           8      344911           0
</event>
<event>
      5   9999  3.79277E-02  2.05644E+01 -1.00000E+00  1.65378E-01
      21    -1     0     0   511   501  0.000000000E+00  0.000000000E+00  3.589619260E+02  3.589619260E+02  0.000000000E+00  0.00000E+00  9.000E+00
      21    -1     0     0   501   502  0.000000000E+00  0.000000000E+00 -2.515105263E+02  2.515105263E+02  0.000000000E+00  0.00000E+00  9.000E+00
      25     1     1     2     0     0 -5.598824397E+00  4.597316858E-01 -1.411052510E+02  1.885928154E+02  1.250000000E+02  0.00000E+00  9.000E+00
      25     1     1     2     0     0  2.579756417E+01 -4.320350840E+00 -3.904567477E+01  1.335430435E+02  1.250000000E+02  0.00000E+00  9.000E+00
      21     1     1     2   511   502 -2.019873977E+01  3.860619154E+00  2.876023254E+02  2.883365934E+02  3.814697266E-06  0.00000E+00  9.000E+00
#rwgt            1           1   1.7920405854078371E-002           8      345110           0
</event>
<event>
      5   9999  3.79277E-02  1.75743E+01 -1.00000E+00  1.71139E-01
      21    -1     0     0   502   501  0.000000000E+00  0.000000000E+00  1.946436744E+02  1.946436744E+02  0.000000000E+00  0.00000E+00  9.000E+00
      21    -1     0     0   501   512  0.000000000E+00  0.000000000E+00 -1.700510649E+02  1.700510649E+02  0.000000000E+00  0.00000E+00  9.000E+00
      25     1     1     2     0     0  1.106827093E+02  2.785086577E+00  3.759505085E+01  1.711630997E+02  1.250000000E+02  0.00000E+00  9.000E+00
      25     1     1     2     0     0 -1.220803339E+02 -1.616227174E+01 -1.308081868E+01  1.759571958E+02  1.250000000E+02  0.00000E+00  9.000E+00
      21     1     1     2   502   512  1.139762458E+01  1.337718517E+01  7.837729825E-02  1.757444372E+01  3.518464705E-07  0.00000E+00  9.000E+00
#rwgt            1           1   3.8229910002869648E-002           8      345436           0
</event>
<event>
      5   9999  3.79277E-02  3.05303E+01 -1.00000E+00  1.52513E-01
      21    -1     0     0   502   511  0.000000000E+00  0.000000000E+00  2.743461353E+02  2.743461353E+02  0.000000000E+00  0.00000E+00  9.000E+00
      21    -1     0     0   501   502  0.000000000E+00  0.000000000E+00 -1.642137605E+02  1.642137605E+02  0.000000000E+00  0.00000E+00  9.000E+00
      25     1     1     2     0     0 -9.373739065E+01 -1.154264483E+02  8.428053653E+01  2.117502591E+02  1.250000000E+02  0.00000E+00  9.000E+00
      25     1     1     2     0     0  1.119017351E+02  9.088764647E+01  7.016301049E+00  1.909366153E+02  1.250000000E+02  0.00000E+00  9.000E+00
      21     1     1     2   501   511 -1.816434444E+01  2.453880184E+01  1.883553718E+01  3.587302142E+01  0.000000000E+00  0.00000E+00  9.000E+00
#rwgt            1           1   3.3271598175539180E-002           8      345566           0
</event>
<event>
      5   9999  3.79277E-02  3.70494E+01 -1.00000E+00  1.46935E-01
      21    -1     0     0   512   501  0.000000000E+00  0.000000000E+00  7.954856612E+01  7.954856612E+01  0.000000000E+00  0.00000E+00  9.000E+00
      21    -1     0     0   501   502  0.000000000E+00  0.000000000E+00 -5.684024662E+02  5.684024662E+02  0.000000000E+00  0.00000E+00  9.000E+00
      25     1     1     2     0     0 -1.185954736E+02  4.028326142E+01 -2.622352701E+02  3.163541756E+02  1.250000000E+02  0.00000E+00  9.000E+00
      25     1     1     2     0     0  1.550978878E+02 -3.394016870E+01 -2.085067837E+02  2.903573121E+02  1.250000000E+02  0.00000E+00  9.000E+00
      21     1     1     2   512   502 -3.650241420E+01 -6.343092719E+00 -1.811184630E+01  4.123954467E+01  5.331201500E-07  0.00000E+00  9.000E+00
#rwgt            1           1   4.0973249194635922E-002           8      345684           0
</event>
<event>
      5   9999 -3.79277E-02  4.49761E+01 -1.00000E+00  1.41751E-01
      21    -1     0     0   502   511  0.000000000E+00  0.000000000E+00  1.871155709E+02  1.871155709E+02  0.000000000E+00  0.00000E+00  9.000E+00
      21    -1     0     0   501   502  0.000000000E+00  0.000000000E+00 -1.527004282E+03  1.527004282E+03  0.000000000E+00  0.00000E+00  9.000E+00
      25     1     1     2     0     0 -4.510615052E+02 -1.883566828E+02 -9.070476484E+02  1.037928301E+03  1.250000000E+02  0.00000E+00  9.000E+00
      25     1     1     2     0     0  4.322002137E+02  1.475265229E+02 -4.066872902E+02  6.241639622E+02  1.250000000E+02  0.00000E+00  9.000E+00
      21     1     1     2   501   511  1.886129149E+01  4.083015987E+01 -2.615377222E+01  5.202758954E+01  5.840038640E-07  0.00000E+00  9.000E+00
#rwgt            1           1 -0.32654882062891560                8      345754           0
</event>
<event>
      5   9999  3.79277E-02  7.15969E+00 -1.00000E+00  2.14178E-01
      21    -1     0     0   502   501  0.000000000E+00  0.000000000E+00  9.891070319E+01  9.891070319E+01  0.000000000E+00  0.00000E+00  9.000E+00
      21    -1     0     0   512   502  0.000000000E+00  0.000000000E+00 -2.473965743E+02  2.473965743E+02  0.000000000E+00  0.00000E+00  9.000E+00
      25     1     1     2     0     0 -3.542059770E+01 -6.033592982E+01 -8.316669866E+01  1.656404025E+02  1.250000000E+02  0.00000E+00  9.000E+00
      25     1     1     2     0     0  3.362454545E+01  6.726668094E+01 -3.568401301E+01  1.501791104E+02  1.250000000E+02  0.00000E+00  9.000E+00
      21     1     1     2   512   501  1.796052247E+00 -6.930751128E+00 -2.963515948E+01  3.048776463E+01  3.371747881E-07  0.00000E+00  9.000E+00
#rwgt            1           1   8.3933667767361206E-002           8      345947           0
</event>
<event>
      5   9999  3.79277E-02  1.41099E+01 -1.00000E+00  1.79923E-01
      21    -1     0     0   511   501  0.000000000E+00  0.000000000E+00  1.339494572E+02  1.339494572E+02  0.000000000E+00  0.00000E+00  9.000E+00
      21    -1     0     0   501   502  0.000000000E+00  0.000000000E+00 -5.020945108E+02  5.020945108E+02  0.000000000E+00  0.00000E+00  9.000E+00
      25     1     1     2     0     0  3.395297367E+01  8.689003688E+01 -5.426548877E+00  1.560677108E+02  1.250000000E+02  0.00000E+00  9.000E+00
      25     1     1     2     0     0 -3.832527217E+01 -1.003054511E+02 -4.040185418E+02  4.363324330E+02  1.250000000E+02  0.00000E+00  9.000E+00
      21     1     1     2   511   502  4.372298498E+00  1.341541417E+01  4.130003701E+01  4.364382418E+01  1.348699152E-06  0.00000E+00  9.000E+00
#rwgt            1           1   3.6881159206336347E-002           8      346442           0
</event>
<event>
      5   9999  3.79277E-02  6.64524E+01 -1.00000E+00  1.32375E-01
      21    -1     0     0   502   512  0.000000000E+00  0.000000000E+00  7.998779989E+01  7.998779989E+01  0.000000000E+00  0.00000E+00  9.000E+00
      21    -1     0     0   501   502  0.000000000E+00  0.000000000E+00 -9.368315572E+02  9.368315572E+02  0.000000000E+00  0.00000E+00  9.000E+00
      25     1     1     2     0     0 -1.372290379E+02  4.104495680E+01 -4.352411579E+02  4.749488002E+02  1.250000000E+02  0.00000E+00  9.000E+00
      25     1     1     2     0     0  1.947439593E+02 -7.433098614E+01 -4.066596186E+02  4.737587473E+02  1.250000000E+02  0.00000E+00  9.000E+00
      21     1     1     2   501   512 -5.751492142E+01  3.328602934E+01 -1.494298086E+01  6.811180964E+01  1.792108581E-06  0.00000E+00  9.000E+00
#rwgt            1           1   4.5481793405231841E-002           8      346696           0
</event>
<event>
      5   9999  3.79277E-02  3.46127E+01 -1.00000E+00  1.48847E-01
       2    -1     0     0   502     0  0.000000000E+00  0.000000000E+00  2.221853237E+02  2.221853237E+02  0.000000000E+00  0.00000E+00  9.000E+00
      21    -1     0     0   501   502  0.000000000E+00  0.000000000E+00 -4.211942944E+02  4.211942944E+02  0.000000000E+00  0.00000E+00  9.000E+00
      25     1     1     2     0     0 -1.701732741E+02 -8.796405406E+01 -4.109794443E+01  2.324019343E+02  1.250000000E+02  0.00000E+00  9.000E+00
      25     1     1     2     0     0  2.009172506E+02  7.206295966E+01 -2.257068760E+02  3.348572915E+02  1.250000000E+02  0.00000E+00  9.000E+00
       2     1     1     2   501     0 -3.074397648E+01  1.590109440E+01  6.779584971E+01  7.612039234E+01  1.651812370E-06  0.00000E+00  9.000E+00
#rwgt            1           1   6.9806986505861715E-002           8      346913           0
</event>
<event>
      5   9999  3.79277E-02  2.43411E+01 -1.00000E+00  1.59625E-01
      21    -1     0     0   502   511  0.000000000E+00  0.000000000E+00  1.608226470E+02  1.608226470E+02  0.000000000E+00  0.00000E+00  9.000E+00
      21    -1     0     0   501   502  0.000000000E+00  0.000000000E+00 -2.818493935E+02  2.818493935E+02  0.000000000E+00  0.00000E+00  9.000E+00
      25     1     1     2     0     0  4.285269314E+01 -6.969315626E+01  3.737875951E+01  1.539988994E+02  1.250000000E+02  0.00000E+00  9.000E+00
      25     1     1     2     0     0 -6.081388159E+01  5.326497495E+01 -1.946281064E+02  2.450318052E+02  1.250000000E+02  0.00000E+00  9.000E+00
      21     1     1     2   501   511  1.796118845E+01  1.642818131E+01  3.622260032E+01  4.364133598E+01  4.768371582E-07  0.00000E+00  9.000E+00
#rwgt            1           1   2.8931393666544323E-002           8      347174           0
</event>
<event>
      5   9999  3.79277E-02  1.85215E+01 -1.00000E+00  1.69169E-01
      21    -1     0     0   502   512  0.000000000E+00  0.000000000E+00  2.388795263E+01  2.388795263E+01  0.000000000E+00  0.00000E+00  9.000E+00
      21    -1     0     0   501   502  0.000000000E+00  0.000000000E+00 -1.512382429E+03  1.512382429E+03  0.000000000E+00  0.00000E+00  9.000E+00
      25     1     1     2     0     0 -1.111809431E+02  5.623406031E+01 -7.560149757E+02  7.763421379E+02  1.250000000E+02  0.00000E+00  9.000E+00
      25     1     1     2     0     0  9.516390875E+01 -6.553468558E+01 -7.130432760E+02  7.330802671E+02  1.250000000E+02  0.00000E+00  9.000E+00
      21     1     1     2   501   512  1.601703433E+01  9.300625262E+00 -1.943622468E+01  2.684797663E+01  6.307962682E-07  0.00000E+00  9.000E+00
#rwgt            1           1   5.1706212814725323E-002           8      347347           0
</event>
<event>
      5   9999  3.79277E-02  7.80051E+01 -1.00000E+00  1.28883E-01
      21    -1     0     0   502   501  0.000000000E+00  0.000000000E+00  4.329515197E+02  4.329515197E+02  0.000000000E+00  0.00000E+00  9.000E+00
      21    -1     0     0   501   511  0.000000000E+00  0.000000000E+00 -3.131200195E+02  3.131200195E+02  0.000000000E+00  0.00000E+00  9.000E+00
      25     1     1     2     0     0  1.049409280E+02  1.212789226E+02  2.906782538E+02  3.547393728E+02  1.250000000E+02  0.00000E+00  9.000E+00
      25     1     1     2     0     0 -3.533034718E+01 -8.607724985E+01  4.469326330E+01  1.621111167E+02  1.250000000E+02  0.00000E+00  9.000E+00
      21     1     1     2   502   511 -6.961058078E+01 -3.520167272E+01 -2.155400169E+02  2.292210497E+02  4.672030912E-06  0.00000E+00  9.000E+00
#rwgt            1           1   2.8038293009153281E-002           8      347512           0
</event>
<event>
      5   9999  3.79277E-02  3.62094E+01 -1.00000E+00  1.47574E-01
      21    -1     0     0   502   512  0.000000000E+00  0.000000000E+00  2.684645238E+02  2.684645238E+02  0.000000000E+00  0.00000E+00  9.000E+00
      21    -1     0     0   501   502  0.000000000E+00  0.000000000E+00 -4.277267782E+02  4.277267782E+02  0.000000000E+00  0.00000E+00  9.000E+00
      25     1     1     2     0     0  5.410541951E+00  4.040772628E+01 -5.092274019E+01  1.409971056E+02  1.250000000E+02  0.00000E+00  9.000E+00
      25     1     1     2     0     0  2.034250076E+01 -1.495374811E+01 -3.179022080E+02  3.425262702E+02  1.250000000E+02  0.00000E+00  9.000E+00
      21     1     1     2   501   512 -2.575304271E+01 -2.545397817E+01  2.095626938E+02  2.126679262E+02  2.697398305E-06  0.00000E+00  9.000E+00
#rwgt            1           1   3.5637012664827078E-002           8      347617           0
</event>
<event>
      5   9999  3.79277E-02  2.07053E+01 -1.00000E+00  1.65137E-01
      21    -1     0     0   502   501  0.000000000E+00  0.000000000E+00  4.615208553E+02  4.615208553E+02  0.000000000E+00  0.00000E+00  9.000E+00
      21    -1     0     0   511   502  0.000000000E+00  0.000000000E+00 -2.132153010E+02  2.132153010E+02  0.000000000E+00  0.00000E+00  9.000E+00
      25     1     1     2     0     0  8.398432321E+01  1.169043430E+02 -5.207875214E+01  1.976289158E+02  1.250000000E+02  0.00000E+00  9.000E+00
      25     1     1     2     0     0 -1.030255469E+02 -1.087714894E+02  3.624759311E+02  4.116543463E+02  1.250000000E+02  0.00000E+00  9.000E+00
      21     1     1     2   511   501  1.904122369E+01 -8.132853555E+00 -6.209162465E+01  6.545289419E+01  6.743495762E-07  0.00000E+00  9.000E+00
#rwgt            1           1   4.8163019686132361E-002           8      347724           0
</event>
<event>
      5   9999  3.79277E-02  5.70947E+01 -1.00000E+00  1.35865E-01
      21    -1     0     0   502   501  0.000000000E+00  0.000000000E+00  1.199288121E+02  1.199288121E+02  0.000000000E+00  0.00000E+00  9.000E+00
      21    -1     0     0   501   512  0.000000000E+00  0.000000000E+00 -4.364396038E+02  4.364396038E+02  0.000000000E+00  0.00000E+00  9.000E+00
      25     1     1     2     0     0  9.912413358E+01  7.070126184E+01 -7.110465173E+01  1.884280600E+02  1.250000000E+02  0.00000E+00  9.000E+00
      25     1     1     2     0     0 -1.534343714E+02 -8.831378626E+01 -2.014385148E+02  2.958781952E+02  1.250000000E+02  0.00000E+00  9.000E+00
      21     1     1     2   502   512  5.431023784E+01  1.761252442E+01 -4.396762512E+01  7.206216073E+01  9.536743164E-07  0.00000E+00  9.000E+00
#rwgt            1           1   2.8188536954914200E-002           8      347924           0
</event>
<event>
      5   9999  3.79277E-02  1.25997E+02 -1.00000E+00  1.19476E-01
      21    -1     0     0   502   501  0.000000000E+00  0.000000000E+00  9.854002356E+02  9.854002356E+02  0.000000000E+00  0.00000E+00  9.000E+00
      21    -1     0     0   511   502  0.000000000E+00  0.000000000E+00 -3.408252904E+02  3.408252904E+02  0.000000000E+00  0.00000E+00  9.000E+00
      25     1     1     2     0     0 -2.645941005E+02 -1.697015142E+02  3.928975096E+02  5.184612763E+02  1.250000000E+02  0.00000E+00  9.000E+00
      25     1     1     2     0     0  2.269268665E+02  2.899362921E+02  4.361917318E+02  5.843347355E+02  1.250000000E+02  0.00000E+00  9.000E+00
      21     1     1     2   511   501  3.766723405E+01 -1.202347779E+02 -1.845142962E+02  2.234295143E+02  2.697398305E-06  0.00000E+00  9.000E+00
#rwgt            1           1   3.5703707489966992E-002           8      348002           0
</event>
<event>
      5   9999  3.79277E-02  1.88642E+01 -1.00000E+00  1.68492E-01
      21    -1     0     0   502   501  0.000000000E+00  0.000000000E+00  8.270305024E+02  8.270305024E+02  0.000000000E+00  0.00000E+00  9.000E+00
      21    -1     0     0   501   512  0.000000000E+00  0.000000000E+00 -8.934606027E+01  8.934606027E+01  0.000000000E+00  0.00000E+00  9.000E+00
      25     1     1     2     0     0 -3.935784230E+01 -1.809262818E+02  1.672064560E+02  2.790454410E+02  1.250000000E+02  0.00000E+00  9.000E+00
      25     1     1     2     0     0  3.661645611E+01  1.995902427E+02  5.706992890E+02  6.184656080E+02  1.250000000E+02  0.00000E+00  9.000E+00
      21     1     1     2   502   512  2.741386188E+00 -1.866396088E+01 -2.213028367E-01  1.886551375E+01  1.928894738E-07  0.00000E+00  9.000E+00
#rwgt            1           1   5.0803626253139299E-002           8      348138           0
</event>
<event>
      5   9999  3.79277E-02  7.06421E+01 -1.00000E+00  1.31020E-01
       2    -1     0     0   502     0  0.000000000E+00  0.000000000E+00  1.470964888E+03  1.470964888E+03  0.000000000E+00  0.00000E+00  9.000E+00
      21    -1     0     0   501   502  0.000000000E+00  0.000000000E+00 -8.352522615E+01  8.352522615E+01  0.000000000E+00  0.00000E+00  9.000E+00
      25     1     1     2     0     0 -6.456685960E+01 -1.458851085E+01  6.190036611E+02  6.349584525E+02  1.250000000E+02  0.00000E+00  9.000E+00
      25     1     1     2     0     0  9.715605898E+01 -4.808724136E+01  1.874235575E+01  1.665171417E+02  1.250000000E+02  0.00000E+00  9.000E+00
       2     1     1     2   501     0 -3.258919939E+01  6.267575221E+01  7.496936448E+02  7.530145197E+02  0.000000000E+00  0.00000E+00  9.000E+00
#rwgt            2          18   3.3046530849264018E-004           8      348477           0
</event>
<event>
      5   9999  3.79277E-02  8.01213E+01 -1.00000E+00  1.28318E-01
      21    -1     0     0   511   501  0.000000000E+00  0.000000000E+00  1.092879557E+02  1.092879557E+02  0.000000000E+00  0.00000E+00  9.000E+00
      21    -1     0     0   501   502  0.000000000E+00  0.000000000E+00 -6.620782496E+02  6.620782496E+02  0.000000000E+00  0.00000E+00  9.000E+00
      25     1     1     2     0     0  1.045458486E+01  1.709384110E+02 -1.614644027E+02  2.665051445E+02  1.250000000E+02  0.00000E+00  9.000E+00
      25     1     1     2     0     0 -9.032391056E+01 -1.772872624E+02 -3.238229639E+02  4.000943566E+02  1.250000000E+02  0.00000E+00  9.000E+00
      21     1     1     2   511   502  7.986932570E+01  6.348851400E+00 -6.750292732E+01  1.047667042E+02  1.348699152E-06  0.00000E+00  9.000E+00
#rwgt            1           1   3.0359928143103770E-002           8      348556           0
</event>
<event>
      5   9999  3.79277E-02  7.45501E+00 -1.00000E+00  2.11759E-01
      21    -1     0     0   502   512  0.000000000E+00  0.000000000E+00  2.372088717E+02  2.372088717E+02  0.000000000E+00  0.00000E+00  9.000E+00
      21    -1     0     0   501   502  0.000000000E+00  0.000000000E+00 -5.515789742E+02  5.515789742E+02  0.000000000E+00  0.00000E+00  9.000E+00
      25     1     1     2     0     0  2.513741071E+02 -1.716730666E+02  2.697356668E+00  3.290788040E+02  1.250000000E+02  0.00000E+00  9.000E+00
      25     1     1     2     0     0 -2.489418810E+02  1.646259799E+02 -3.158177688E+02  4.521500154E+02  1.250000000E+02  0.00000E+00  9.000E+00
      21     1     1     2   501   512 -2.432226118E+00  7.047086702E+00 -1.249690383E+00  7.559026454E+00  3.332000937E-08  0.00000E+00  9.000E+00
#rwgt            1           1   2.3563888335482872E-002           8      348637           0
</event>
<event>
      5   9999  3.79277E-02  1.78680E+02 -1.00000E+00  1.13460E-01
       1    -1     0     0   502     0  0.000000000E+00  0.000000000E+00  1.407089381E+03  1.407089381E+03  0.000000000E+00  0.00000E+00  9.000E+00
      21    -1     0     0   501   502  0.000000000E+00  0.000000000E+00 -1.030389987E+02  1.030389987E+02  0.000000000E+00  0.00000E+00  9.000E+00
      25     1     1     2     0     0  1.056452049E+02  8.304146623E+01  3.752894700E+02  4.177606740E+02  1.250000000E+02  0.00000E+00  9.000E+00
      25     1     1     2     0     0 -1.855087203E+02  7.679683420E+01  1.221233770E+02  2.661773060E+02  1.250000000E+02  0.00000E+00  9.000E+00
       1     1     1     2   501     0  7.986351536E+01 -1.598383004E+02  8.066375356E+02  8.261904000E+02  1.078959322E-05  0.00000E+00  9.000E+00
#rwgt            1           1   4.1623514404249114E-002           8      349053           0
</event>
<event>
      5   9999  3.79277E-02  3.17502E+01 -1.00000E+00  1.51349E-01
      -3    -1     0     0     0   501  0.000000000E+00  0.000000000E+00  3.636519378E+02  3.636519378E+02  0.000000000E+00  0.00000E+00  9.000E+00
      21    -1     0     0   501   502  0.000000000E+00  0.000000000E+00 -3.306059877E+02  3.306059877E+02  0.000000000E+00  0.00000E+00  9.000E+00
      25     1     1     2     0     0  3.662714989E+01  7.056358107E+01 -2.471379218E+02  2.881369804E+02  1.250000000E+02  0.00000E+00  9.000E+00
      25     1     1     2     0     0 -7.793107230E+00 -5.727173338E+01  1.442221978E+01  1.384694349E+02  1.250000000E+02  0.00000E+00  9.000E+00
      -3     1     1     2     0   502 -2.883404265E+01 -1.329184769E+01  2.657616521E+02  2.676515103E+02  5.394796609E-06  0.00000E+00  9.000E+00
#rwgt            2           3   3.8559191890156198E-005           8      349223           0
</event>
<event>
      5   9999 -3.79277E-02  3.09614E+01 -1.00000E+00  1.52094E-01
      21    -1     0     0   502   501  0.000000000E+00  0.000000000E+00  5.381772936E+01  5.381772936E+01  0.000000000E+00  0.00000E+00  9.000E+00
      21    -1     0     0   501   511  0.000000000E+00  0.000000000E+00 -1.006487727E+03  1.006487727E+03  0.000000000E+00  0.00000E+00  9.000E+00
      25     1     1     2     0     0 -2.140277613E+01  1.754360837E+02 -3.576865217E+02  4.180915523E+02  1.250000000E+02  0.00000E+00  9.000E+00
      25     1     1     2     0     0  1.387247618E+00 -1.518143379E+02 -4.107984597E+02  4.554447190E+02  1.250000000E+02  0.00000E+00  9.000E+00
      21     1     1     2   502   511  2.001552851E+01 -2.362174580E+01 -1.841850166E+02  1.867691854E+02  2.697398305E-06  0.00000E+00  9.000E+00
#rwgt            1           1 -0.26381676176461333                8      349257           0
</event>
<event>
      5   9999  3.79277E-02  1.90676E+01 -1.00000E+00  1.68098E-01
      21    -1     0     0   512   501  0.000000000E+00  0.000000000E+00  1.143434897E+03  1.143434897E+03  0.000000000E+00  0.00000E+00  9.000E+00
      21    -1     0     0   501   502  0.000000000E+00  0.000000000E+00 -5.064104562E+01  5.064104562E+01  0.000000000E+00  0.00000E+00  9.000E+00
      25     1     1     2     0     0  1.326370135E+02 -5.548513971E+01  6.189782491E+02  6.476343497E+02  1.250000000E+02  0.00000E+00  9.000E+00
      25     1     1     2     0     0 -1.235492478E+02  7.224772243E+01  2.150593398E+02  2.869837446E+02  1.250000000E+02  0.00000E+00  9.000E+00
      21     1     1     2   512   502 -9.087765700E+00 -1.676258272E+01  2.587562621E+02  2.594578479E+02  5.394796609E-06  0.00000E+00  9.000E+00
#rwgt            1           1   4.6384832032888929E-002           8      349368           0
</event>
<event>
      5   9999  3.79277E-02  4.20701E+01 -1.00000E+00  1.43494E-01
      21    -1     0     0   502   501  0.000000000E+00  0.000000000E+00  2.790892647E+02  2.790892647E+02  0.000000000E+00  0.00000E+00  9.000E+00
       2    -1     0     0   501     0  0.000000000E+00  0.000000000E+00 -9.449781098E+02  9.449781098E+02  0.000000000E+00  0.00000E+00  9.000E+00
      25     1     1     2     0     0  4.720046956E-01  1.069144319E+01  2.488093402E+02  2.786496322E+02  1.250000000E+02  0.00000E+00  9.000E+00
      25     1     1     2     0     0 -1.127529480E+01  2.996793550E+01 -2.689686775E+02  2.983192232E+02  1.250000000E+02  0.00000E+00  9.000E+00
       2     1     1     2   502     0  1.080329011E+01 -4.065937870E+01 -6.457295078E+02  6.470985191E+02  1.705984480E-05  0.00000E+00  9.000E+00
#rwgt            1           1   4.1664232212398962E-002           8      349594           0
</event>
<event>
      5   9999  3.79277E-02  2.35028E+01 -1.00000E+00  1.60786E-01
      21    -1     0     0   511   501  0.000000000E+00  0.000000000E+00  3.456502596E+01  3.456502596E+01  0.000000000E+00  0.00000E+00  9.000E+00
      21    -1     0     0   501   502  0.000000000E+00  0.000000000E+00 -1.803680225E+03  1.803680225E+03  0.000000000E+00  0.00000E+00  9.000E+00
      25     1     1     2     0     0  1.449075348E+02  5.403750831E+01 -1.069339516E+03  1.087671939E+03  1.250000000E+02  0.00000E+00  9.000E+00
      25     1     1     2     0     0 -1.422842056E+02 -3.068161103E+01 -7.012511343E+02  7.270242842E+02  1.250000000E+02  0.00000E+00  9.000E+00
      21     1     1     2   511   502 -2.623329192E+00 -2.335589729E+01  1.475450632E+00  2.354902861E+01  5.017953587E-07  0.00000E+00  9.000E+00
#rwgt            1           1  0.14000919539080250                8      349720           0
</event>
<event>
      5   9999  3.79277E-02  2.43196E+01 -1.00000E+00  1.59654E-01
      21    -1     0     0   502   512  0.000000000E+00  0.000000000E+00  1.288347024E+02  1.288347024E+02  0.000000000E+00  0.00000E+00  9.000E+00
      21    -1     0     0   501   502  0.000000000E+00  0.000000000E+00 -1.551824427E+03  1.551824427E+03  0.000000000E+00  0.00000E+00  9.000E+00
      25     1     1     2     0     0  1.037809566E+01  1.457424792E+02 -5.475800816E+02  5.803598202E+02  1.250000000E+02  0.00000E+00  9.000E+00
      25     1     1     2     0     0 -3.433116932E+01 -1.499489621E+02 -9.764543690E+02  9.963691360E+02  1.250000000E+02  0.00000E+00  9.000E+00
      21     1     1     2   501   512  2.395307366E+01  4.206482856E+00  1.010447261E+02  1.039301732E+02  5.560829062E-06  0.00000E+00  9.000E+00
#rwgt            1           1   4.4697884929194381E-002           8      349849           0
</event>
<event>
      5   9999  3.79277E-02  4.40759E+01 -1.00000E+00  1.42274E-01
       2    -1     0     0   502     0  0.000000000E+00  0.000000000E+00  4.966228710E+02  4.966228710E+02  0.000000000E+00  0.00000E+00  9.000E+00
      21    -1     0     0   501   502  0.000000000E+00  0.000000000E+00 -1.510119415E+02  1.510119415E+02  0.000000000E+00  0.00000E+00  9.000E+00
      25     1     1     2     0     0  1.528023918E+02  6.279591515E+01  8.797398182E+01  2.250695878E+02  1.250000000E+02  0.00000E+00  9.000E+00
      25     1     1     2     0     0 -1.654612155E+02 -2.057701901E+01  5.546382169E+01  2.156433701E+02  1.250000000E+02  0.00000E+00  9.000E+00
       2     1     1     2   501     0  1.265882370E+01 -4.221889613E+01  2.021731261E+02  2.069218546E+02  2.697398305E-06  0.00000E+00  9.000E+00
#rwgt            1           1   2.9628545947623819E-002           8      350035           0
</event>
<event>
      5   9999  3.79277E-02  1.76115E+01 -1.00000E+00  1.71059E-01
      21    -1     0     0   502   511  0.000000000E+00  0.000000000E+00  8.945137121E+02  8.945137121E+02  0.000000000E+00  0.00000E+00  9.000E+00
      21    -1     0     0   501   502  0.000000000E+00  0.000000000E+00 -6.678566345E+01  6.678566345E+01  0.000000000E+00  0.00000E+00  9.000E+00
      25     1     1     2     0     0  4.226347208E+01  7.247608364E+01  3.950439849E+01  1.556424790E+02  1.250000000E+02  0.00000E+00  9.000E+00
      25     1     1     2     0     0 -4.184776901E+01 -5.486948133E+01  7.513100585E+02  7.647572816E+02  1.250000000E+02  0.00000E+00  9.000E+00
      21     1     1     2   501   511 -4.157030737E-01 -1.760660231E+01  3.691359172E+01  4.089961500E+01  4.768371582E-07  0.00000E+00  9.000E+00
#rwgt            1           1   5.7531678138124369E-002           8      350143           0
</event>
<event>
      5   9999  3.79277E-02  2.15505E+02 -1.00000E+00  1.10480E-01
      21    -1     0     0   512   501  0.000000000E+00  0.000000000E+00  8.112484002E+01  8.112484002E+01  0.000000000E+00  0.00000E+00  9.000E+00
      21    -1     0     0   501   502  0.000000000E+00  0.000000000E+00 -2.141199064E+03  2.141199064E+03  0.000000000E+00  0.00000E+00  9.000E+00
      25     1     1     2     0     0  9.615045084E+01  2.332701888E+02 -1.514521175E+03  1.540473719E+03  1.250000000E+02  0.00000E+00  9.000E+00
      25     1     1     2     0     0  6.684657146E+01 -9.229364420E+01 -1.285542809E+02  2.124565462E+02  1.250000000E+02  0.00000E+00  9.000E+00
      21     1     1     2   512   502 -1.629970223E+02 -1.409765446E+02 -4.169987683E+02  4.693936388E+02  7.629394531E-06  0.00000E+00  9.000E+00
#rwgt            1           1   4.1310697729468875E-002           8      350355           0
</event>
<event>
      5   9999  3.79277E-02  5.44433E+01 -1.00000E+00  1.36998E-01
      21    -1     0     0   502   501  0.000000000E+00  0.000000000E+00  7.014917436E+02  7.014917436E+02  0.000000000E+00  0.00000E+00  9.000E+00
      21    -1     0     0   511   502  0.000000000E+00  0.000000000E+00 -1.535087513E+02  1.535087513E+02  0.000000000E+00  0.00000E+00  9.000E+00
      25     1     1     2     0     0  4.333958175E+01  1.334038863E+01  6.151006342E+02  6.293092051E+02  1.250000000E+02  0.00000E+00  9.000E+00
      25     1     1     2     0     0  7.486457338E+00 -3.285408355E+01  1.159981612E+01  1.299807431E+02  1.250000000E+02  0.00000E+00  9.000E+00
      21     1     1     2   511   501 -5.082603909E+01  1.951369492E+01 -7.871745811E+01  9.571054670E+01  1.907348633E-06  0.00000E+00  9.000E+00
#rwgt            1           1   4.7746173852947778E-002           8      350410           0
</event>
<event>
      5   9999  3.79277E-02  5.07704E+01 -1.00000E+00  1.38698E-01
       1    -1     0     0   502     0  0.000000000E+00  0.000000000E+00  2.598975796E+03  2.598975796E+03  0.000000000E+00  0.00000E+00  9.000E+00
      21    -1     0     0   501   502  0.000000000E+00  0.000000000E+00 -7.025831681E+01  7.025831681E+01  0.000000000E+00  0.00000E+00  9.000E+00
      25     1     1     2     0     0 -1.766697550E+02 -8.963499048E+01  8.065088395E+02  8.398381642E+02  1.250000000E+02  0.00000E+00  9.000E+00
      25     1     1     2     0     0  1.605076669E+02  1.377641465E+02  2.307204941E+02  3.370439401E+02  1.250000000E+02  0.00000E+00  9.000E+00
       1     1     1     2   501     0  1.616208818E+01 -4.812915598E+01  1.491488145E+03  1.492352008E+03  0.000000000E+00  0.00000E+00  9.000E+00
#rwgt            1           1   4.5997339688762684E-002           8      350552           0
</event>
<event>
      5   9999  3.79277E-02  1.83384E+01 -1.00000E+00  1.69538E-01
      21    -1     0     0   502   501  0.000000000E+00  0.000000000E+00  1.297981089E+02  1.297981089E+02  0.000000000E+00  0.00000E+00  9.000E+00
      21    -1     0     0   501   511  0.000000000E+00  0.000000000E+00 -6.719898298E+02  6.719898298E+02  0.000000000E+00  0.00000E+00  9.000E+00
      25     1     1     2     0     0  2.093586891E+02 -1.131139089E+02 -2.773639653E+02  3.862403220E+02  1.250000000E+02  0.00000E+00  9.000E+00
      25     1     1     2     0     0 -2.274275411E+02  1.162464773E+02 -1.986514636E+02  3.468774047E+02  1.250000000E+02  0.00000E+00  9.000E+00
      21     1     1     2   502   511  1.806885199E+01 -3.132568393E+00 -6.617629200E+01  6.867021203E+01  1.348699152E-06  0.00000E+00  9.000E+00
#rwgt            1           1   2.9713130105593417E-002           8      350648           0
</event>
<event>
      5   9999  3.79277E-02  1.87119E+01 -1.00000E+00  1.68790E-01
      21    -1     0     0   502   501  0.000000000E+00  0.000000000E+00  1.764588976E+02  1.764588976E+02  0.000000000E+00  0.00000E+00  9.000E+00
      21    -1     0     0   501   512  0.000000000E+00  0.000000000E+00 -1.668167092E+02  1.668167092E+02  0.000000000E+00  0.00000E+00  9.000E+00
      25     1     1     2     0     0  7.228753372E+01  7.223156147E+01  2.854507727E+01  1.639594689E+02  1.250000000E+02  0.00000E+00  9.000E+00
      25     1     1     2     0     0 -5.940948934E+01 -5.865621191E+01  3.207376101E+00  1.503506764E+02  1.250000000E+02  0.00000E+00  9.000E+00
      21     1     1     2   502   512 -1.287804438E+01 -1.357534957E+01 -2.211026500E+01  2.896546152E+01  4.768371582E-07  0.00000E+00  9.000E+00
#rwgt            1           1   5.1136306143357631E-002           8      350840           0
</event>
<event>
      5   9999  3.79277E-02  6.32312E+01 -1.00000E+00  1.33497E-01
      21    -1     0     0   502   511  0.000000000E+00  0.000000000E+00  1.140564218E+02  1.140564218E+02  0.000000000E+00  0.00000E+00  9.000E+00
      21    -1     0     0   501   502  0.000000000E+00  0.000000000E+00 -7.512797868E+02  7.512797868E+02  0.000000000E+00  0.00000E+00  9.000E+00
      25     1     1     2     0     0  1.200937158E+02 -1.298055856E+02 -1.002483374E+02  2.386351186E+02  1.250000000E+02  0.00000E+00  9.000E+00
      25     1     1     2     0     0 -1.741649976E+02  9.702632214E+01 -5.020618290E+02  5.544714904E+02  1.250000000E+02  0.00000E+00  9.000E+00
      21     1     1     2   501   511  5.407128171E+01  3.277926350E+01 -3.491319854E+01  7.222959957E+01  1.507891493E-06  0.00000E+00  9.000E+00
#rwgt            1           1  0.22965875234555866                8      351053           0
</event>
<event>
      5   9999  3.79277E-02  2.12290E+01 -1.00000E+00  1.64260E-01
      21    -1     0     0   512   501  0.000000000E+00  0.000000000E+00  1.027140113E+02  1.027140113E+02  0.000000000E+00  0.00000E+00  9.000E+00
      21    -1     0     0   501   502  0.000000000E+00  0.000000000E+00 -4.606603572E+02  4.606603572E+02  0.000000000E+00  0.00000E+00  9.000E+00
      25     1     1     2     0     0 -2.370615617E+01 -2.527793587E+00 -3.021461562E+02  3.278500744E+02  1.250000000E+02  0.00000E+00  9.000E+00
      25     1     1     2     0     0  6.044312259E+00  1.430616550E+01 -1.162798874E+02  1.714269883E+02  1.250000000E+02  0.00000E+00  9.000E+00
      21     1     1     2   512   502  1.766184391E+01 -1.177837191E+01  6.047969779E+01  6.409730587E+01  6.743495762E-07  0.00000E+00  9.000E+00
#rwgt            1           1   2.9339721510514186E-002           8      351231           0
</event>
<event>
      5   9999  3.79277E-02  5.14417E+01 -1.00000E+00  1.38375E-01
      21    -1     0     0   511   501  0.000000000E+00  0.000000000E+00  1.553250487E+03  1.553250487E+03  0.000000000E+00  0.00000E+00  9.000E+00
      21    -1     0     0   501   502  0.000000000E+00  0.000000000E+00 -3.058693438E+01  3.058693438E+01  0.000000000E+00  0.00000E+00  9.000E+00
      25     1     1     2     0     0  1.592801462E+02 -1.138658940E+01  5.656206928E+02  6.008756839E+02  1.250000000E+02  0.00000E+00  9.000E+00
      25     1     1     2     0     0 -1.149693342E+02 -1.474381434E+01  6.700618766E+02  6.914067155E+02  1.250000000E+02  0.00000E+00  9.000E+00
      21     1     1     2   511   502 -4.431081196E+01  2.613040374E+01  2.869809831E+02  2.915550218E+02  5.394796609E-06  0.00000E+00  9.000E+00
#rwgt            1           1   3.4946216786838541E-002           8      351406           0
</event>
<event>
      5   9999  3.79277E-02  7.11120E+00 -1.00000E+00  2.14591E-01
      21    -1     0     0   502   501  0.000000000E+00  0.000000000E+00  9.139783597E+01  9.139783597E+01  0.000000000E+00  0.00000E+00  9.000E+00
      21    -1     0     0   512   502  0.000000000E+00  0.000000000E+00 -5.146029817E+02  5.146029817E+02  0.000000000E+00  0.00000E+00  9.000E+00
      25     1     1     2     0     0  1.074546665E+02 -3.804228005E+01 -3.361012768E+01  1.724771321E+02  1.250000000E+02  0.00000E+00  9.000E+00
      25     1     1     2     0     0 -1.112559707E+02  3.203235441E+01 -3.110403328E+02  3.546477849E+02  1.250000000E+02  0.00000E+00  9.000E+00
      21     1     1     2   512   501  3.801304256E+00  6.009925642E+00 -7.855468525E+01  7.887590060E+01  0.000000000E+00  0.00000E+00  9.000E+00
#rwgt            1           1   3.4211896378986785E-002           8      351478           0
</event>
<event>
      5   9999 -3.79277E-02  7.39852E+01 -1.00000E+00  1.30014E-01
      21    -1     0     0   502   501  0.000000000E+00  0.000000000E+00  1.177462210E+03  1.177462210E+03  0.000000000E+00  0.00000E+00  9.000E+00
      21    -1     0     0   511   502  0.000000000E+00  0.000000000E+00 -4.208851935E+01  4.208851935E+01  0.000000000E+00  0.00000E+00  9.000E+00
      25     1     1     2     0     0 -4.214248839E+01 -1.453002690E+02  3.710662651E+02  4.197658045E+02  1.250000000E+02  0.00000E+00  9.000E+00
      25     1     1     2     0     0  2.905496633E+01  7.248177919E+01  6.239554353E+02  6.411264966E+02  1.250000000E+02  0.00000E+00  9.000E+00
      21     1     1     2   511   501  1.308752206E+01  7.281848979E+01  1.403519898E+02  1.586584279E+02  0.000000000E+00  0.00000E+00  9.000E+00
#rwgt            1           1  -6.0081094222358578E-002           8      351702           0
</event>
<event>
      5   9999  3.79277E-02  2.40064E+01 -1.00000E+00  1.60081E-01
      21    -1     0     0   512   501  0.000000000E+00  0.000000000E+00  8.275794611E+02  8.275794611E+02  0.000000000E+00  0.00000E+00  9.000E+00
      21    -1     0     0   501   502  0.000000000E+00  0.000000000E+00 -1.023122835E+02  1.023122835E+02  0.000000000E+00  0.00000E+00  9.000E+00
      25     1     1     2     0     0 -1.964101767E+02  7.215612381E+01  2.381754780E+02  3.407873560E+02  1.250000000E+02  0.00000E+00  9.000E+00
      25     1     1     2     0     0  1.877433399E+02 -9.454351850E+01  2.462150551E+02  3.470344247E+02  1.250000000E+02  0.00000E+00  9.000E+00
      21     1     1     2   512   502  8.666836716E+00  2.238739469E+01  2.408766446E+02  2.420699639E+02  2.697398305E-06  0.00000E+00  9.000E+00
#rwgt            1           1   3.3014149122779751E-002           8      351803           0
</event>
<event>
      5   9999 -3.79277E-02  1.05525E+02 -1.00000E+00  1.22787E-01
      21    -1     0     0   511   501  0.000000000E+00  0.000000000E+00  1.786058672E+02  1.786058672E+02  0.000000000E+00  0.00000E+00  9.000E+00
      21    -1     0     0   501   502  0.000000000E+00  0.000000000E+00 -7.330991645E+02  7.330991645E+02  0.000000000E+00  0.00000E+00  9.000E+00
      25     1     1     2     0     0  1.758496768E+02  2.179410916E+02 -4.681022623E+02  5.596125054E+02  1.250000000E+02  0.00000E+00  9.000E+00
      25     1     1     2     0     0 -7.929354411E+01 -1.753687081E+02 -2.719449225E+01  2.310977939E+02  1.250000000E+02  0.00000E+00  9.000E+00
      21     1     1     2   511   502 -9.655613267E+01 -4.257238349E+01 -5.919654275E+01  1.209947324E+02  1.651812370E-06  0.00000E+00  9.000E+00
#rwgt            1           1 -0.20159968555999316                8      351986           0
</event>
<event>
      5   9999  3.79277E-02  1.34987E+01 -1.00000E+00  1.81810E-01
      21    -1     0     0   502   512  0.000000000E+00  0.000000000E+00  1.953163864E+02  1.953163864E+02  0.000000000E+00  0.00000E+00  9.000E+00
      21    -1     0     0   501   502  0.000000000E+00  0.000000000E+00 -6.193853760E+02  6.193853760E+02  0.000000000E+00  0.00000E+00  9.000E+00
      25     1     1     2     0     0 -2.441715860E+02  6.197159305E+01 -1.736015436E+02  3.304886348E+02  1.250000000E+02  0.00000E+00  9.000E+00
      25     1     1     2     0     0  2.425781082E+02 -7.537590411E+01 -3.119511888E+02  4.212650112E+02  1.250000000E+02  0.00000E+00  9.000E+00
      21     1     1     2   501   512  1.593477801E+00  1.340431105E+01  6.148374274E+01  6.294811632E+01  6.743495762E-07  0.00000E+00  9.000E+00
#rwgt            1           1   3.2593847840960484E-002           8      352086           0
</event>
<event>
      5   9999  3.79277E-02  9.02629E+01 -1.00000E+00  1.25863E-01
      21    -1     0     0   502   511  0.000000000E+00  0.000000000E+00  1.211946636E+02  1.211946636E+02  0.000000000E+00  0.00000E+00  9.000E+00
      21    -1     0     0   501   502  0.000000000E+00  0.000000000E+00 -4.406247320E+02  4.406247320E+02  0.000000000E+00  0.00000E+00  9.000E+00
      25     1     1     2     0     0 -9.383249694E+01  7.714115826E+01 -2.331377599E+02  2.910902108E+02  1.250000000E+02  0.00000E+00  9.000E+00
      25     1     1     2     0     0  9.874778109E+01  1.298782733E+01 -8.372637852E+01  1.804298046E+02  1.250000000E+02  0.00000E+00  9.000E+00
      21     1     1     2   501   511 -4.915284143E+00 -9.012898558E+01 -2.565930002E+00  9.029938016E+01  1.515822408E-06  0.00000E+00  9.000E+00
#rwgt            1           1   3.8915495721188229E-002           8      352397           0
</event>
<event>
      5   9999  3.79277E-02  1.37218E+02 -1.00000E+00  1.17947E-01
      21    -1     0     0   512   501  0.000000000E+00  0.000000000E+00  1.648521248E+02  1.648521248E+02  0.000000000E+00  0.00000E+00  9.000E+00
      21    -1     0     0   501   502  0.000000000E+00  0.000000000E+00 -9.452921535E+02  9.452921535E+02  0.000000000E+00  0.00000E+00  9.000E+00
      25     1     1     2     0     0 -1.549001004E+02 -2.866365531E+02 -2.592924180E+02  4.347552331E+02  1.250000000E+02  0.00000E+00  9.000E+00
      25     1     1     2     0     0  2.528263012E+01  2.416020502E+02 -4.340282015E+02  5.128510912E+02  1.250000000E+02  0.00000E+00  9.000E+00
      21     1     1     2   512   502  1.296174702E+02  4.503450287E+01 -8.711940920E+01  1.625379540E+02  2.697398305E-06  0.00000E+00  9.000E+00
#rwgt            2          11   3.5423947115270828E-003           8      352623           0
</event>
<event>
      5   9999  3.79277E-02  2.58390E+01 -1.00000E+00  1.57685E-01
      21    -1     0     0   502   511  0.000000000E+00  0.000000000E+00  1.431067902E+03  1.431067902E+03  0.000000000E+00  0.00000E+00  9.000E+00
      21    -1     0     0   501   502  0.000000000E+00  0.000000000E+00 -9.127011573E+01  9.127011573E+01  0.000000000E+00  0.00000E+00  9.000E+00
      25     1     1     2     0     0  2.809989750E+02 -3.221018373E+00  3.027682656E+02  4.315836206E+02  1.250000000E+02  0.00000E+00  9.000E+00
      25     1     1     2     0     0 -2.779854888E+02 -2.244167030E+01  8.787479803E+02  9.303776509E+02  1.250000000E+02  0.00000E+00  9.000E+00
      21     1     1     2   501   511 -3.013486238E+00  2.566268867E+01  1.582815406E+02  1.603767464E+02  2.697398305E-06  0.00000E+00  9.000E+00
#rwgt            1           1   4.5300690083758290E-002           8      352643           0
</event>
<event>
      5   9999  3.79277E-02  1.50465E+02 -1.00000E+00  1.16340E-01
       2    -1     0     0   502     0  0.000000000E+00  0.000000000E+00  2.623920707E+03  2.623920707E+03  0.000000000E+00  0.00000E+00  9.000E+00
      21    -1     0     0   501   502  0.000000000E+00  0.000000000E+00 -2.031532776E+02  2.031532776E+02  0.000000000E+00  0.00000E+00  9.000E+00
      25     1     1     2     0     0  3.874581723E+01  1.138545485E+01  1.700696443E+02  2.148942783E+02  1.250000000E+02  0.00000E+00  9.000E+00
      25     1     1     2     0     0 -7.651774850E+01  1.342617484E+02 -1.229843240E+02  2.337334526E+02  1.250000000E+02  0.00000E+00  9.000E+00
       2     1     1     2   501     0  3.777193127E+01 -1.456472032E+02  2.373682109E+03  2.378446253E+03  3.051757812E-05  0.00000E+00  9.000E+00
#rwgt            2          18   3.1331697191426225E-003           8      352837           0
</event>
<event>
      5   9999  3.79277E-02  1.38531E+01 -1.00000E+00  1.80701E-01
      21    -1     0     0   502   511  0.000000000E+00  0.000000000E+00  1.037255099E+02  1.037255099E+02  0.000000000E+00  0.00000E+00  9.000E+00
      21    -1     0     0   501   502  0.000000000E+00  0.000000000E+00 -5.725652075E+02  5.725652075E+02  0.000000000E+00  0.00000E+00  9.000E+00
      25     1     1     2     0     0  1.651742859E+02  7.564046228E+01 -3.683548397E+02  4.293184275E+02  1.250000000E+02  0.00000E+00  9.000E+00
      25     1     1     2     0     0 -1.516503838E+02 -7.864274429E+01 -9.581464243E+01  2.323531059E+02  1.250000000E+02  0.00000E+00  9.000E+00
      21     1     1     2   501   511 -1.352390210E+01  3.002282006E+00 -4.670215431E+00  1.461918388E+01  1.685873940E-07  0.00000E+00  9.000E+00
#rwgt            1           1   2.2786189101431400E-002           8      352931           0
</event>
<event>
      5   9999  3.79277E-02  1.08256E+02 -1.00000E+00  1.22298E-01
      21    -1     0     0   502   501  0.000000000E+00  0.000000000E+00  2.520013656E+02  2.520013656E+02  0.000000000E+00  0.00000E+00  9.000E+00
       2    -1     0     0   501     0  0.000000000E+00  0.000000000E+00 -1.183370138E+03  1.183370138E+03  0.000000000E+00  0.00000E+00  9.000E+00
      25     1     1     2     0     0  1.880436756E+02 -1.504334966E+02 -1.172064971E+02  2.955554496E+02  1.250000000E+02  0.00000E+00  9.000E+00
      25     1     1     2     0     0 -2.409399076E+02  5.598075167E+01  3.894227232E+01  2.798702989E+02  1.250000000E+02  0.00000E+00  9.000E+00
       2     1     1     2   502     0  5.289623202E+01  9.445274493E+01 -8.531045476E+02  8.599457550E+02  1.078959322E-05  0.00000E+00  9.000E+00
#rwgt            1           1   2.7023358307273797E-002           8      353140           0
</event>
<event>
      5   9999  3.79277E-02  9.19630E+00 -1.00000E+00  2.00060E-01
      21    -1     0     0   502   501  0.000000000E+00  0.000000000E+00  1.821176927E+02  1.821176927E+02  0.000000000E+00  0.00000E+00  9.000E+00
      21    -1     0     0   511   502  0.000000000E+00  0.000000000E+00 -2.078242746E+02  2.078242746E+02  0.000000000E+00  0.00000E+00  9.000E+00
      25     1     1     2     0     0 -7.277795585E+01 -6.095179069E+01 -1.029089620E+02  1.876885881E+02  1.250000000E+02  0.00000E+00  9.000E+00
      25     1     1     2     0     0  7.345208832E+01  7.012334894E+01  9.151847257E+01  1.852380203E+02  1.250000000E+02  0.00000E+00  9.000E+00
      21     1     1     2   511   501 -6.741324621E-01 -9.171558259E+00 -1.431609244E+01  1.701535889E+01  2.384185791E-07  0.00000E+00  9.000E+00
#rwgt            1           1   4.6875380079806024E-002           8      353252           0
</event>
<event>
      5   9999  3.79277E-02  1.02560E+02 -1.00000E+00  1.23336E-01
      21    -1     0     0   512   501  0.000000000E+00  0.000000000E+00  5.295782244E+01  5.295782244E+01  0.000000000E+00  0.00000E+00  9.000E+00
      21    -1     0     0   501   502  0.000000000E+00  0.000000000E+00 -1.547500876E+03  1.547500876E+03  0.000000000E+00  0.00000E+00  9.000E+00
      25     1     1     2     0     0 -1.620077666E+01  1.468873645E+02 -5.841915060E+02  6.154210580E+02  1.250000000E+02  0.00000E+00  9.000E+00
      25     1     1     2     0     0 -2.191408892E+01 -2.421018580E+02 -6.801690256E+02  7.330405449E+02  1.250000000E+02  0.00000E+00  9.000E+00
      21     1     1     2   512   502  3.811486557E+01  9.521449358E+01 -2.301825220E+02  2.519970957E+02  3.814697266E-06  0.00000E+00  9.000E+00
#rwgt            1           1   4.6670470265308815E-002           8      353548           0
</event>
<event>
      5   9999  3.79277E-02  6.74305E+00 -1.00000E+00  2.17875E-01
      21    -1     0     0   511   501  0.000000000E+00  0.000000000E+00  1.568860999E+02  1.568860999E+02  0.000000000E+00  0.00000E+00  9.000E+00
      21    -1     0     0   501   502  0.000000000E+00  0.000000000E+00 -7.962285251E+02  7.962285251E+02  0.000000000E+00  0.00000E+00  9.000E+00
      25     1     1     2     0     0  2.104471444E+01  1.364332705E+02  8.187475652E+01  2.034340017E+02  1.250000000E+02  0.00000E+00  9.000E+00
      25     1     1     2     0     0 -1.779679287E+01 -1.305239813E+02 -7.203430994E+02  7.428811590E+02  1.250000000E+02  0.00000E+00  9.000E+00
      21     1     1     2   511   502 -3.247921565E+00 -5.909289232E+00 -8.740823143E-01  6.799464215E+00  1.389887788E-07  0.00000E+00  9.000E+00
#rwgt            1           1   2.7474943752195363E-002           8      353608           0
</event>
<event>
      5   9999  3.79277E-02  2.17748E+01 -1.00000E+00  1.63379E-01
      21    -1     0     0   502   512  0.000000000E+00  0.000000000E+00  6.844937800E+02  6.844937800E+02  0.000000000E+00  0.00000E+00  9.000E+00
      21    -1     0     0   501   502  0.000000000E+00  0.000000000E+00 -1.279145117E+02  1.279145117E+02  0.000000000E+00  0.00000E+00  9.000E+00
      25     1     1     2     0     0  7.400884655E+01 -1.329845943E+02  1.307601027E+02  2.364009648E+02  1.250000000E+02  0.00000E+00  9.000E+00
      25     1     1     2     0     0 -9.325610820E+01  1.228020878E+02  5.696591430E+01  2.065119122E+02  1.250000000E+02  0.00000E+00  9.000E+00
      21     1     1     2   501   512  1.924726165E+01  1.018250655E+01  3.688532513E+02  3.694954147E+02  0.000000000E+00  0.00000E+00  9.000E+00
#rwgt            2          11   5.5075342042725569E-004           8      353943           0
</event>
<event>
      5   9999  3.79277E-02  1.39094E+01 -1.00000E+00  1.80529E-01
      21    -1     0     0   502   511  0.000000000E+00  0.000000000E+00  1.980541841E+02  1.980541841E+02  0.000000000E+00  0.00000E+00  9.000E+00
      21    -1     0     0   501   502  0.000000000E+00  0.000000000E+00 -2.297617484E+02  2.297617484E+02  0.000000000E+00  0.00000E+00  9.000E+00
      25     1     1     2     0     0 -1.599409001E+02  1.868735592E+01 -2.215613161E+00  2.038632330E+02  1.250000000E+02  0.00000E+00  9.000E+00
      25     1     1     2     0     0  1.478223418E+02 -1.186002999E+01 -4.895125936E+01  2.000333243E+02  1.250000000E+02  0.00000E+00  9.000E+00
      21     1     1     2   501   511  1.211855831E+01 -6.827325938E+00  1.945930815E+01  2.391937517E+01  2.384185791E-07  0.00000E+00  9.000E+00
#rwgt            1           1   3.9752193224915001E-002           8      354053           0
</event>
<event>
      5   9999  3.79277E-02  4.43205E+01 -1.00000E+00  1.42131E-01
      21    -1     0     0   502   501  0.000000000E+00  0.000000000E+00  2.449080111E+01  2.449080111E+01  0.000000000E+00  0.00000E+00  9.000E+00
      21    -1     0     0   501   512  0.000000000E+00  0.000000000E+00 -2.288691427E+03  2.288691427E+03  0.000000000E+00  0.00000E+00  9.000E+00
      25     1     1     2     0     0  1.393796827E+02 -5.669918095E+01 -1.362226554E+03  1.376200449E+03  1.250000000E+02  0.00000E+00  9.000E+00
      25     1     1     2     0     0 -1.027614299E+02  8.166742895E+01 -4.868286736E+02  5.194772737E+02  1.250000000E+02  0.00000E+00  9.000E+00
      21     1     1     2   502   512 -3.661825276E+01 -2.496824801E+01 -4.151453991E+02  4.175045056E+02  0.000000000E+00  0.00000E+00  9.000E+00
#rwgt            1           1  0.11431881580556068                8      354193           0
</event>
<event>
      5   9999  3.79277E-02  8.92251E+00 -1.00000E+00  2.01661E-01
      21    -1     0     0   502   501  0.000000000E+00  0.000000000E+00  2.821381128E+02  2.821381128E+02  0.000000000E+00  0.00000E+00  9.000E+00
      21    -1     0     0   501   511  0.000000000E+00  0.000000000E+00 -2.791063859E+02  2.791063859E+02  0.000000000E+00  0.00000E+00  9.000E+00
      25     1     1     2     0     0  2.206894444E+02  5.436113376E+01  9.234130170E+01  2.753377557E+02  1.250000000E+02  0.00000E+00  9.000E+00
      25     1     1     2     0     0 -2.259971433E+02 -4.718900354E+01 -8.469673608E+01  2.758623714E+02  1.250000000E+02  0.00000E+00  9.000E+00
      21     1     1     2   502   511  5.307698878E+00 -7.172130221E+00 -4.612838735E+00  1.004437158E+01  1.032382731E-07  0.00000E+00  9.000E+00
#rwgt            1           1   3.3784204618758626E-002           8      354339           0
</event>
<event>
      5   9999  3.79277E-02  1.37159E+01 -1.00000E+00  1.81125E-01
      21    -1     0     0   502   512  0.000000000E+00  0.000000000E+00  2.023520077E+03  2.023520077E+03  0.000000000E+00  0.00000E+00  9.000E+00
      21    -1     0     0   501   502  0.000000000E+00  0.000000000E+00 -7.141470641E+01  7.141470641E+01  0.000000000E+00  0.00000E+00  9.000E+00
      25     1     1     2     0     0  1.610643043E+02 -1.168600000E+02  1.659057073E+02  2.876589533E+02  1.250000000E+02  0.00000E+00  9.000E+00
      25     1     1     2     0     0 -1.747798114E+02  1.167504882E+02  1.426143465E+03  1.446958480E+03  1.250000000E+02  0.00000E+00  9.000E+00
      21     1     1     2   501   512  1.371550714E+01  1.095117639E-01  3.600561975E+02  3.603173496E+02  5.394796609E-06  0.00000E+00  9.000E+00
#rwgt            1           1   3.3076134427135064E-002           8      354650           0
</event>
<event>
      5   9999  3.79277E-02  2.35221E+01 -1.00000E+00  1.60759E-01
      21    -1     0     0   502   511  0.000000000E+00  0.000000000E+00  1.086753858E+02  1.086753858E+02  0.000000000E+00  0.00000E+00  9.000E+00
      21    -1     0     0   501   502  0.000000000E+00  0.000000000E+00 -5.347435251E+02  5.347435251E+02  0.000000000E+00  0.00000E+00  9.000E+00
      25     1     1     2     0     0 -1.103952302E+02  1.440168495E+02 -2.826190091E+02  3.583663825E+02  1.250000000E+02  0.00000E+00  9.000E+00
      25     1     1     2     0     0  1.184627759E+02 -1.219215060E+02 -1.519696891E+02  2.600347464E+02  1.250000000E+02  0.00000E+00  9.000E+00
      21     1     1     2   501   511 -8.067545667E+00 -2.209534348E+01  8.520558902E+00  2.501778208E+01  5.196212463E-07  0.00000E+00  9.000E+00
#rwgt            1           1   4.3720835977465455E-002           8      354919           0
</event>
<event>
      5   9999  3.79277E-02  2.85975E+01 -1.00000E+00  1.54498E-01
      21    -1     0     0   502   501  0.000000000E+00  0.000000000E+00  8.756984696E+01  8.756984696E+01  0.000000000E+00  0.00000E+00  9.000E+00
      21    -1     0     0   512   502  0.000000000E+00  0.000000000E+00 -1.066467211E+03  1.066467211E+03  0.000000000E+00  0.00000E+00  9.000E+00
      25     1     1     2     0     0  2.272099793E+02 -2.942604712E+01 -5.538752809E+02  6.122851408E+02  1.250000000E+02  0.00000E+00  9.000E+00
      25     1     1     2     0     0 -2.460800090E+02  7.937954407E+00 -2.774544120E+02  3.914387981E+02  1.250000000E+02  0.00000E+00  9.000E+00
      21     1     1     2   512   501  1.887002969E+01  2.148809272E+01 -1.475676708E+02  1.503131185E+02  1.907348633E-06  0.00000E+00  9.000E+00
#rwgt            1           1   4.0609450739668422E-002           8      355142           0
</event>
<event>
      5   9999  3.79277E-02  1.01104E+01 -1.00000E+00  1.95207E-01
      21    -1     0     0   502   501  0.000000000E+00  0.000000000E+00  2.267918514E+02  2.267918514E+02  0.000000000E+00  0.00000E+00  9.000E+00
      21    -1     0     0   501   511  0.000000000E+00  0.000000000E+00 -2.397402828E+02  2.397402828E+02  0.000000000E+00  0.00000E+00  9.000E+00
      25     1     1     2     0     0  1.108901053E+02 -1.150002556E+02  9.022471933E+01  2.220071490E+02  1.250000000E+02  0.00000E+00  9.000E+00
      25     1     1     2     0     0 -1.155772861E+02  1.239585328E+02 -9.309985563E+01  2.302529262E+02  1.250000000E+02  0.00000E+00  9.000E+00
      21     1     1     2   502   511  4.687180829E+00 -8.958277145E+00 -1.007329507E+01  1.427205897E+01  0.000000000E+00  0.00000E+00  9.000E+00
#rwgt            1           1   1.8618227644258922E-002           8      355423           0
</event>
<event>
      5   9999  3.79277E-02  8.80195E+00 -1.00000E+00  2.02390E-01
      21    -1     0     0   502   512  0.000000000E+00  0.000000000E+00  2.379338677E+02  2.379338677E+02  0.000000000E+00  0.00000E+00  9.000E+00
      21    -1     0     0   501   502  0.000000000E+00  0.000000000E+00 -2.720692836E+02  2.720692836E+02  0.000000000E+00  0.00000E+00  9.000E+00
      25     1     1     2     0     0 -6.624488362E+01  1.104985612E+02  1.156137952E+02  2.135178360E+02  1.250000000E+02  0.00000E+00  9.000E+00
      25     1     1     2     0     0  7.108327057E+01 -1.031457131E+02 -1.874401312E+02  2.577802791E+02  1.250000000E+02  0.00000E+00  9.000E+00
      21     1     1     2   501   512 -4.838386956E+00 -7.352848094E+00  3.769092014E+01  3.870503616E+01  4.768371582E-07  0.00000E+00  9.000E+00
#rwgt            1           1   3.2583972881484603E-002           8      355698           0
</event>
<event>
      5   9999  3.79277E-02  2.85732E+01 -1.00000E+00  1.54524E-01
      21    -1     0     0   502   511  0.000000000E+00  0.000000000E+00  1.041967881E+02  1.041967881E+02  0.000000000E+00  0.00000E+00  9.000E+00
      21    -1     0     0   501   502  0.000000000E+00  0.000000000E+00 -6.499526416E+02  6.499526416E+02  0.000000000E+00  0.00000E+00  9.000E+00
      25     1     1     2     0     0  1.012418196E+02 -5.848114492E+01 -3.446638335E+01  1.745934762E+02  1.250000000E+02  0.00000E+00  9.000E+00
      25     1     1     2     0     0 -9.956655757E+01  2.995705534E+01 -5.237331378E+02  5.483906674E+02  1.250000000E+02  0.00000E+00  9.000E+00
      21     1     1     2   501   511 -1.675262042E+00  2.852408958E+01  1.244366767E+01  3.116528604E+01  7.152557373E-07  0.00000E+00  9.000E+00
#rwgt            1           1   3.4446474847487488E-002           8      355999           0
</event>
<event>
      5   9999  3.79277E-02  2.30822E+01 -1.00000E+00  1.61392E-01
      21    -1     0     0   502   501  0.000000000E+00  0.000000000E+00  3.658943114E+02  3.658943114E+02  0.000000000E+00  0.00000E+00  9.000E+00
      21    -1     0     0   501   512  0.000000000E+00  0.000000000E+00 -2.875291094E+02  2.875291094E+02  0.000000000E+00  0.00000E+00  9.000E+00
      25     1     1     2     0     0  2.436973364E+02 -5.308537853E+01  1.669484789E+02  3.251203528E+02  1.250000000E+02  0.00000E+00  9.000E+00
      25     1     1     2     0     0 -2.412037454E+02  7.603248997E+01 -5.479109482E+01  2.873799756E+02  1.250000000E+02  0.00000E+00  9.000E+00
      21     1     1     2   502   512 -2.493591020E+00 -2.294711144E+01 -3.379218212E+01  4.092309240E+01  4.768371582E-07  0.00000E+00  9.000E+00
#rwgt            1           1   2.4375012699980082E-002           8      356104           0
</event>
<event>
      5   9999  3.79277E-02  1.23379E+02 -1.00000E+00  1.19859E-01
      21    -1     0     0   502   501  0.000000000E+00  0.000000000E+00  3.749134105E+02  3.749134105E+02  0.000000000E+00  0.00000E+00  9.000E+00
      21    -1     0     0   501   511  0.000000000E+00  0.000000000E+00 -3.391007184E+02  3.391007184E+02  0.000000000E+00  0.00000E+00  9.000E+00
      25     1     1     2     0     0  2.622768311E+01  2.778012397E+02  1.291458764E+02  3.319112495E+02  1.250000000E+02  0.00000E+00  9.000E+00
      25     1     1     2     0     0  6.405784052E+01 -1.937127491E+02 -9.816394182E+01  2.586294561E+02  1.250000000E+02  0.00000E+00  9.000E+00
      21     1     1     2   502   511 -9.028552363E+01 -8.408849059E+01  4.830757473E+00  1.234734232E+02  2.245284105E-06  0.00000E+00  9.000E+00
#rwgt            1           1   2.7717007823014284E-002           8      356274           0
</event>
<event>
      5   9999  3.79277E-02  3.18358E+01 -1.00000E+00  1.51270E-01
       1    -1     0     0   502     0  0.000000000E+00  0.000000000E+00  1.995794044E+03  1.995794044E+03  0.000000000E+00  0.00000E+00  9.000E+00
      21    -1     0     0   501   502  0.000000000E+00  0.000000000E+00 -2.737367493E+01  2.737367493E+01  0.000000000E+00  0.00000E+00  9.000E+00
      25     1     1     2     0     0  6.734938674E+01  3.231847905E+01  1.391604620E+03  1.399202931E+03  1.250000000E+02  0.00000E+00  9.000E+00
      25     1     1     2     0     0 -4.088076446E+01 -5.000838205E+01  1.930648490E+02  2.388956071E+02  1.250000000E+02  0.00000E+00  9.000E+00
       1     1     1     2   501     0 -2.646862228E+01  1.768990300E+01  3.837509001E+02  3.850691808E+02  7.629394531E-06  0.00000E+00  9.000E+00
#rwgt            1           1   3.8480648842176120E-002           8      356335           0
</event>
<event>
      5   9999  3.79277E-02  1.78831E+01 -1.00000E+00  1.70480E-01
      21    -1     0     0   502   511  0.000000000E+00  0.000000000E+00  1.077068045E+03  1.077068045E+03  0.000000000E+00  0.00000E+00  9.000E+00
      21    -1     0     0   501   502  0.000000000E+00  0.000000000E+00 -2.457966611E+01  2.457966611E+01  0.000000000E+00  0.00000E+00  9.000E+00
      25     1     1     2     0     0 -4.744087611E+01 -6.928135966E+01  4.958794820E+02  5.182393310E+02  1.250000000E+02  0.00000E+00  9.000E+00
      25     1     1     2     0     0  5.981533647E+01  5.637100221E+01  4.243994383E+02  4.499949417E+02  1.250000000E+02  0.00000E+00  9.000E+00
      21     1     1     2   501   511 -1.237446036E+01  1.291035745E+01  1.322094582E+02  1.334134380E+02  2.697398305E-06  0.00000E+00  9.000E+00
#rwgt            1           1  0.10742288077424691                8      356428           0
</event>
<event>
      5   9999  3.79277E-02  3.49649E+01 -1.00000E+00  1.48559E-01
      21    -1     0     0   502   512  0.000000000E+00  0.000000000E+00  7.087247021E+02  7.087247021E+02  0.000000000E+00  0.00000E+00  9.000E+00
      21    -1     0     0   501   502  0.000000000E+00  0.000000000E+00 -1.140489325E+02  1.140489325E+02  0.000000000E+00  0.00000E+00  9.000E+00
      25     1     1     2     0     0 -8.576714710E+01  1.991419652E+01  2.840151132E+02  3.225556747E+02  1.250000000E+02  0.00000E+00  9.000E+00
      25     1     1     2     0     0  1.128511464E+02 -4.202756123E+01 -1.357686568E+01  1.741006273E+02  1.250000000E+02  0.00000E+00  9.000E+00
      21     1     1     2   501   512 -2.708399932E+01  2.211336470E+01  3.242375221E+02  3.261173326E+02  5.394796609E-06  0.00000E+00  9.000E+00
#rwgt            1           1   4.5426934842382569E-002           8      356636           0
</event>
<event>
      5   9999  3.79277E-02  1.30700E+02 -1.00000E+00  1.18815E-01
      21    -1     0     0   502   501  0.000000000E+00  0.000000000E+00  1.979896499E+02  1.979896499E+02  0.000000000E+00  0.00000E+00  9.000E+00
      21    -1     0     0   511   502  0.000000000E+00  0.000000000E+00 -7.885274437E+02  7.885274437E+02  0.000000000E+00  0.00000E+00  9.000E+00
      25     1     1     2     0     0 -4.356696740E+01  7.567688723E+00  1.273898037E+02  1.838709130E+02  1.250000000E+02  0.00000E+00  9.000E+00
      25     1     1     2     0     0  1.742121347E+02 -3.786635518E+00 -5.465531975E+02  5.871197529E+02  1.250000000E+02  0.00000E+00  9.000E+00
      21     1     1     2   511   501 -1.306451673E+02 -3.781053205E+00 -1.713744000E+02  2.155264277E+02  2.697398305E-06  0.00000E+00  9.000E+00
#rwgt            2          11   2.9528901659322784E-003           8      356775           0
</event>
<event>
      5   9999  3.79277E-02  4.49905E+01 -1.00000E+00  1.41743E-01
      21    -1     0     0   502   501  0.000000000E+00  0.000000000E+00  7.139022092E+02  7.139022092E+02  0.000000000E+00  0.00000E+00  9.000E+00
      21    -1     0     0   512   502  0.000000000E+00  0.000000000E+00 -1.434704515E+02  1.434704515E+02  0.000000000E+00  0.00000E+00  9.000E+00
      25     1     1     2     0     0  8.733342465E+00 -2.295729554E+02  1.927242176E+02  3.248809585E+02  1.250000000E+02  0.00000E+00  9.000E+00
      25     1     1     2     0     0 -1.733724131E+01  2.737331399E+02  3.827841180E+02  4.872156533E+02  1.250000000E+02  0.00000E+00  9.000E+00
      21     1     1     2   512   501  8.603898841E+00 -4.416018442E+01 -5.076577959E+00  4.527604893E+01  7.226679118E-07  0.00000E+00  9.000E+00
#rwgt            2          11   2.3094187652026666E-003           8      356945           0
</event>
<event>
      5   9999  3.79277E-02  8.90028E+01 -1.00000E+00  1.26147E-01
      21    -1     0     0   502   511  0.000000000E+00  0.000000000E+00  5.206893162E+02  5.206893162E+02  0.000000000E+00  0.00000E+00  9.000E+00
      21    -1     0     0   501   502  0.000000000E+00  0.000000000E+00 -3.563148368E+02  3.563148368E+02  0.000000000E+00  0.00000E+00  9.000E+00
      25     1     1     2     0     0 -1.896004661E+02 -1.057356814E+02 -1.049194664E+02  2.715906212E+02  1.250000000E+02  0.00000E+00  9.000E+00
      25     1     1     2     0     0  1.918550872E+02  1.676148619E+01 -8.140244347E+01  2.435994247E+02  1.250000000E+02  0.00000E+00  9.000E+00
      21     1     1     2   501   511 -2.254621104E+00  8.897419523E+01  3.506963892E+02  3.618141072E+02  0.000000000E+00  0.00000E+00  9.000E+00
#rwgt            1           1   2.9774765023449751E-002           8      357055           0
</event>
<event>
      5   9999  3.79277E-02  1.03427E+02 -1.00000E+00  1.23173E-01
      21    -1     0     0   502   501  0.000000000E+00  0.000000000E+00  6.168865129E+01  6.168865129E+01  0.000000000E+00  0.00000E+00  9.000E+00
      21    -1     0     0   501   512  0.000000000E+00  0.000000000E+00 -1.884130190E+03  1.884130190E+03  0.000000000E+00  0.00000E+00  9.000E+00
      25     1     1     2     0     0 -1.333907580E+02 -1.000560028E+02 -2.535739066E+02  3.282209989E+02  1.250000000E+02  0.00000E+00  9.000E+00
      25     1     1     2     0     0  2.338811105E+02  7.558602055E+01 -9.165713262E+02  9.571528699E+02  1.250000000E+02  0.00000E+00  9.000E+00
      21     1     1     2   502   512 -1.004903524E+02  2.446998225E+01 -6.522963057E+02  6.604449723E+02  7.629394531E-06  0.00000E+00  9.000E+00
#rwgt            1           1   3.5093688135307180E-002           8      357159           0
</event>
<event>
      5   9999  3.79277E-02  2.03294E+01 -1.00000E+00  1.65786E-01
      21    -1     0     0   511   501  0.000000000E+00  0.000000000E+00  1.223196400E+02  1.223196400E+02  0.000000000E+00  0.00000E+00  9.000E+00
      21    -1     0     0   501   502  0.000000000E+00  0.000000000E+00 -2.701022439E+02  2.701022439E+02  0.000000000E+00  0.00000E+00  9.000E+00
      25     1     1     2     0     0  3.953645839E+01  1.174250270E+02 -4.843813499E+01  1.825459433E+02  1.250000000E+02  0.00000E+00  9.000E+00
      25     1     1     2     0     0 -2.845541247E+01 -1.003811477E+02 -9.670709245E+01  1.893762051E+02  1.250000000E+02  0.00000E+00  9.000E+00
      21     1     1     2   511   502 -1.108104591E+01 -1.704387930E+01 -2.637376541E+00  2.049973549E+01  3.111453804E-07  0.00000E+00  9.000E+00
#rwgt            1           1   2.7647206319261850E-002           8      357386           0
</event>
<event>
      5   9999  3.79277E-02  8.70755E+01 -1.00000E+00  1.26593E-01
      21    -1     0     0   502   501  0.000000000E+00  0.000000000E+00  4.065485746E+02  4.065485746E+02  0.000000000E+00  0.00000E+00  9.000E+00
       4    -1     0     0   501     0  0.000000000E+00  0.000000000E+00 -3.352127403E+02  3.352127403E+02  0.000000000E+00  0.00000E+00  9.000E+00
      25     1     1     2     0     0  1.234789759E+02  3.770620341E+01  2.174596250E+02  2.821037110E+02  1.250000000E+02  0.00000E+00  9.000E+00
      25     1     1     2     0     0 -5.738416700E+01 -9.439501806E+01  1.027958312E+02  1.959473015E+02  1.250000000E+02  0.00000E+00  9.000E+00
       4     1     1     2   502     0 -6.609480885E+01  5.668881464E+01 -2.489196218E+02  2.637103024E+02  2.697398305E-06  0.00000E+00  9.000E+00
#rwgt            1           1   3.4063934730576825E-002           8      357636           0
</event>
<event>
      5   9999 -3.79277E-02  3.46188E+01 -1.00000E+00  1.48842E-01
      21    -1     0     0   502   501  0.000000000E+00  0.000000000E+00  4.217460401E+02  4.217460401E+02  0.000000000E+00  0.00000E+00  9.000E+00
       2    -1     0     0   501     0  0.000000000E+00  0.000000000E+00 -6.126050657E+02  6.126050657E+02  0.000000000E+00  0.00000E+00  9.000E+00
      25     1     1     2     0     0  5.598547184E+01  3.338000933E+02  1.043493990E+02  3.755937598E+02  1.250000000E+02  0.00000E+00  9.000E+00
      25     1     1     2     0     0 -5.158967769E+01 -3.681387061E+02 -3.223167097E+01  3.935117309E+02  1.250000000E+02  0.00000E+00  9.000E+00
       2     1     1     2   502     0 -4.395794149E+00  3.433861274E+01 -2.629767537E+02  2.652456151E+02  3.814697266E-06  0.00000E+00  9.000E+00
#rwgt            1           1 -0.29283625350989245                8      357816           0
</event>
<event>
      5   9999  3.79277E-02  1.53056E+02 -1.00000E+00  1.16048E-01
       2    -1     0     0   502     0  0.000000000E+00  0.000000000E+00  1.284495915E+03  1.284495915E+03  0.000000000E+00  0.00000E+00  9.000E+00
      21    -1     0     0   501   502  0.000000000E+00  0.000000000E+00 -2.027623908E+02  2.027623908E+02  0.000000000E+00  0.00000E+00  9.000E+00
      25     1     1     2     0     0 -2.408260317E+02 -2.108658917E+02  1.575643739E+02  3.780385348E+02  1.250000000E+02  0.00000E+00  9.000E+00
      25     1     1     2     0     0  3.016354853E+02  7.040861369E+01  2.481921842E+02  4.161318291E+02  1.250000000E+02  0.00000E+00  9.000E+00
       2     1     1     2   501     0 -6.080945353E+01  1.404572780E+02  6.759769658E+02  6.930879417E+02  7.629394531E-06  0.00000E+00  9.000E+00
#rwgt            1           1   3.9721900479620376E-002           8      358004           0
</event>
<event>
      5   9999  3.79277E-02  5.66926E+00 -1.00000E+00  2.29365E-01
      21    -1     0     0   502   511  0.000000000E+00  0.000000000E+00  8.478180309E+01  8.478180309E+01  0.000000000E+00  0.00000E+00  9.000E+00
      21    -1     0     0   501   502  0.000000000E+00  0.000000000E+00 -3.815126440E+02  3.815126440E+02  0.000000000E+00  0.00000E+00  9.000E+00
      25     1     1     2     0     0  9.197183680E+01  5.935907420E+01 -8.404669199E+01  1.862019465E+02  1.250000000E+02  0.00000E+00  9.000E+00
      25     1     1     2     0     0 -8.632625958E+01 -5.884141684E+01 -2.181172990E+02  2.722401359E+02  1.250000000E+02  0.00000E+00  9.000E+00
      21     1     1     2   501   511 -5.645577223E+00 -5.176573525E-01  5.433150117E+00  7.852364708E+00  8.429369702E-08  0.00000E+00  9.000E+00
#rwgt            1           1   3.4954276850498345E-002           8      358212           0
</event>
<event>
      5   9999  3.79277E-02  2.71416E+01 -1.00000E+00  1.56123E-01
      21    -1     0     0   502   501  0.000000000E+00  0.000000000E+00  1.479454488E+02  1.479454488E+02  0.000000000E+00  0.00000E+00  9.000E+00
      -2    -1     0     0     0   502  0.000000000E+00  0.000000000E+00 -2.218110744E+02  2.218110744E+02  0.000000000E+00  0.00000E+00  9.000E+00
      25     1     1     2     0     0 -9.255261826E+01  3.454022253E+01  1.972109286E-01  1.593237365E+02  1.250000000E+02  0.00000E+00  9.000E+00
      25     1     1     2     0     0  9.903802444E+01 -8.184876046E+00 -3.602084174E+01  1.637010187E+02  1.250000000E+02  0.00000E+00  9.000E+00
      -2     1     1     2     0   501 -6.485406179E+00 -2.635534648E+01 -3.804199479E+01  4.673176809E+01  9.536743164E-07  0.00000E+00  9.000E+00
#rwgt            1           1   2.9091833958685302E-002           8      358522           0
</event>
<event>
      5   9999  3.79277E-02  1.44023E+02 -1.00000E+00  1.17098E-01
      21    -1     0     0   511   501  0.000000000E+00  0.000000000E+00  1.239838190E+03  1.239838190E+03  0.000000000E+00  0.00000E+00  9.000E+00
      21    -1     0     0   501   502  0.000000000E+00  0.000000000E+00 -1.044457464E+03  1.044457464E+03  0.000000000E+00  0.00000E+00  9.000E+00
      25     1     1     2     0     0 -5.592216727E+02  5.277772227E+00 -2.576140930E+02  6.282887513E+02  1.250000000E+02  0.00000E+00  9.000E+00
      25     1     1     2     0     0  5.632395569E+02  1.386892256E+02 -4.480420320E+02  7.435322200E+02  1.250000000E+02  0.00000E+00  9.000E+00
      21     1     1     2   511   502 -4.017884159E+00 -1.439669979E+02  9.010368508E+02  9.124746826E+02  1.078959322E-05  0.00000E+00  9.000E+00
#rwgt            1           1   2.7512089218367966E-002           8      358634           0
</event>
<event>
      5   9999  3.79277E-02  2.30247E+01 -1.00000E+00  1.61476E-01
      21    -1     0     0   502   501  0.000000000E+00  0.000000000E+00  2.322615643E+02  2.322615643E+02  0.000000000E+00  0.00000E+00  9.000E+00
       2    -1     0     0   501     0  0.000000000E+00  0.000000000E+00 -3.508856506E+02  3.508856506E+02  0.000000000E+00  0.00000E+00  9.000E+00
      25     1     1     2     0     0  1.593579392E+02  1.140603447E+01 -1.510709686E+02  2.529278315E+02  1.250000000E+02  0.00000E+00  9.000E+00
      25     1     1     2     0     0 -1.786509349E+02  1.160390586E+00  1.136017953E+02  2.458614873E+02  1.250000000E+02  0.00000E+00  9.000E+00
       2     1     1     2   502     0  1.929299572E+01 -1.256642505E+01 -8.115491299E+01  8.435789605E+01  0.000000000E+00  0.00000E+00  9.000E+00
#rwgt            1           1   3.5674134490548001E-002           8      358708           0
</event>
<event>
      5   9999  3.79277E-02  1.78712E+01 -1.00000E+00  1.70505E-01
      21    -1     0     0   502   501  0.000000000E+00  0.000000000E+00  3.790677901E+02  3.790677901E+02  0.000000000E+00  0.00000E+00  9.000E+00
      21    -1     0     0   511   502  0.000000000E+00  0.000000000E+00 -1.580613314E+02  1.580613314E+02  0.000000000E+00  0.00000E+00  9.000E+00
      25     1     1     2     0     0 -1.941515928E+02 -3.831462502E+01  6.558133837E+01  2.430818040E+02  1.250000000E+02  0.00000E+00  9.000E+00
      25     1     1     2     0     0  1.802310237E+02  2.710761699E+01  1.630249138E+02  2.746273244E+02  1.250000000E+02  0.00000E+00  9.000E+00
      21     1     1     2   511   501  1.392056913E+01  1.120700803E+01 -7.599793463E+00  1.941999317E+01  3.153981341E-07  0.00000E+00  9.000E+00
#rwgt            1           1   3.6277978688856308E-002           8      358925           0
</event>
<event>
      5   9999  3.79277E-02  1.03273E+02 -1.00000E+00  1.23202E-01
      21    -1     0     0   502   501  0.000000000E+00  0.000000000E+00  9.157299815E+02  9.157299815E+02  0.000000000E+00  0.00000E+00  9.000E+00
      21    -1     0     0   512   502  0.000000000E+00  0.000000000E+00 -4.507119409E+02  4.507119409E+02  0.000000000E+00  0.00000E+00  9.000E+00
      25     1     1     2     0     0  1.741308543E+02  3.744830871E+02  6.338002046E+02  7.667377884E+02  1.250000000E+02  0.00000E+00  9.000E+00
      25     1     1     2     0     0 -2.710280650E+02 -3.387587483E+02 -7.015809411E+01  4.569035563E+02  1.250000000E+02  0.00000E+00  9.000E+00
      21     1     1     2   512   501  9.689721070E+01 -3.572433873E+01 -9.862406990E+01  1.428005777E+02  0.000000000E+00  0.00000E+00  9.000E+00
#rwgt            1           1   7.2727401621851151E-002           8      359184           0
</event>
<event>
      5   9999  3.79277E-02  3.54297E+01 -1.00000E+00  1.48186E-01
      21    -1     0     0   502   501  0.000000000E+00  0.000000000E+00  1.504709714E+02  1.504709714E+02  0.000000000E+00  0.00000E+00  9.000E+00
      21    -1     0     0   511   502  0.000000000E+00  0.000000000E+00 -4.932257672E+02  4.932257672E+02  0.000000000E+00  0.00000E+00  9.000E+00
      25     1     1     2     0     0 -2.364790762E+00 -1.116911574E+02 -3.067074078E+02  3.495353214E+02  1.250000000E+02  0.00000E+00  9.000E+00
      25     1     1     2     0     0 -2.679745906E+01  9.157085664E+01  7.742990424E+01  1.752818179E+02  1.250000000E+02  0.00000E+00  9.000E+00
      21     1     1     2   511   501  2.916224982E+01  2.012030079E+01 -1.134772921E+02  1.188795994E+02  1.348699152E-06  0.00000E+00  9.000E+00
#rwgt            1           1   5.0161085177617047E-002           8      359413           0
</event>
<event>
      5   9999  3.79277E-02  2.18930E+01 -1.00000E+00  1.63192E-01
      21    -1     0     0   502   501  0.000000000E+00  0.000000000E+00  1.108128689E+02  1.108128689E+02  0.000000000E+00  0.00000E+00  9.000E+00
      21    -1     0     0   501   512  0.000000000E+00  0.000000000E+00 -4.653603781E+02  4.653603781E+02  0.000000000E+00  0.00000E+00  9.000E+00
      25     1     1     2     0     0 -1.067580016E+02  9.288380521E+01 -1.624967728E+02  2.491081559E+02  1.250000000E+02  0.00000E+00  9.000E+00
      25     1     1     2     0     0  8.518256098E+01 -9.659916810E+01 -5.419560095E+01  1.874823489E+02  1.250000000E+02  0.00000E+00  9.000E+00
      21     1     1     2   502   512  2.157544061E+01  3.715362891E+00 -1.378551355E+02  1.395827423E+02  2.697398305E-06  0.00000E+00  9.000E+00
#rwgt            1           1   4.1350588029862675E-002           8      359595           0
</event>
<event>
      5   9999  3.79277E-02  1.45434E+01 -1.00000E+00  1.78658E-01
      21    -1     0     0   511   501  0.000000000E+00  0.000000000E+00  3.466775219E+02  3.466775219E+02  0.000000000E+00  0.00000E+00  9.000E+00
      21    -1     0     0   501   502  0.000000000E+00  0.000000000E+00 -1.474695141E+02  1.474695141E+02  0.000000000E+00  0.00000E+00  9.000E+00
      25     1     1     2     0     0 -1.261330550E+02 -6.123974911E-01 -3.908765167E+01  1.818317000E+02  1.250000000E+02  0.00000E+00  9.000E+00
      25     1     1     2     0     0  1.393364757E+02  6.709883323E+00  2.197314102E+02  2.887326940E+02  1.250000000E+02  0.00000E+00  9.000E+00
      21     1     1     2   511   502 -1.320342067E+01 -6.097485832E+00  1.856424932E+01  2.358264201E+01  0.000000000E+00  0.00000E+00  9.000E+00
#rwgt            1           1   4.0125975371316694E-002           8      359780           0
</event>
<event>
      5   9999  3.79277E-02  2.93251E+01 -1.00000E+00  1.53729E-01
      21    -1     0     0   502   512  0.000000000E+00  0.000000000E+00  7.481445331E+02  7.481445331E+02  0.000000000E+00  0.00000E+00  9.000E+00
      21    -1     0     0   501   502  0.000000000E+00  0.000000000E+00 -8.695951334E+01  8.695951334E+01  0.000000000E+00  0.00000E+00  9.000E+00
      25     1     1     2     0     0  3.828693683E+01  7.751799417E+00 -1.995641578E+01  1.324735387E+02  1.250000000E+02  0.00000E+00  9.000E+00
      25     1     1     2     0     0 -5.725494520E+01  1.461277074E+01  4.855128452E+02  5.048161890E+02  1.250000000E+02  0.00000E+00  9.000E+00
      21     1     1     2   501   512  1.896800836E+01 -2.236457016E+01  1.956285903E+02  1.978143187E+02  0.000000000E+00  0.00000E+00  9.000E+00
#rwgt            1           1   4.4787116705361882E-002           8      359998           0
</event>
<event>
      5   9999  3.79277E-02  1.39312E+01 -1.00000E+00  1.80462E-01
      21    -1     0     0   502   501  0.000000000E+00  0.000000000E+00  5.395768975E+01  5.395768975E+01  0.000000000E+00  0.00000E+00  9.000E+00
      21    -1     0     0   511   502  0.000000000E+00  0.000000000E+00 -1.149910415E+03  1.149910415E+03  0.000000000E+00  0.00000E+00  9.000E+00
      25     1     1     2     0     0  1.715935502E+02 -2.849004707E+01 -5.209740168E+02  5.632894065E+02  1.250000000E+02  0.00000E+00  9.000E+00
      25     1     1     2     0     0 -1.611317651E+02  1.929058009E+01 -2.888520294E+02  3.541130710E+02  1.250000000E+02  0.00000E+00  9.000E+00
      21     1     1     2   511   501 -1.046178509E+01  9.199466981E+00 -2.861266794E+02  2.864656277E+02  3.814697266E-06  0.00000E+00  9.000E+00
#rwgt            1           1   1.9973555945777439E-002           8      360132           0
</event>
<event>
      5   9999  3.79277E-02  5.49461E+01 -1.00000E+00  1.36778E-01
      21    -1     0     0   512   501  0.000000000E+00  0.000000000E+00  7.582594852E+01  7.582594852E+01  0.000000000E+00  0.00000E+00  9.000E+00
      21    -1     0     0   501   502  0.000000000E+00  0.000000000E+00 -1.099717410E+03  1.099717410E+03  0.000000000E+00  0.00000E+00  9.000E+00
      25     1     1     2     0     0 -1.238246221E+02  1.476991276E+02 -3.968597091E+02  4.585522850E+02  1.250000000E+02  0.00000E+00  9.000E+00
      25     1     1     2     0     0  1.087145338E+02 -2.005267758E+02 -6.035990990E+02  6.572569589E+02  1.250000000E+02  0.00000E+00  9.000E+00
      21     1     1     2   512   502  1.511008824E+01  5.282764825E+01 -2.343265298E+01  5.973411430E+01  8.920806376E-07  0.00000E+00  9.000E+00
#rwgt            1           1  0.12935194246973827                8      360269           0
</event>
<event>
      5   9999  3.79277E-02  5.88313E+01 -1.00000E+00  1.35161E-01
      21    -1     0     0   502   511  0.000000000E+00  0.000000000E+00  1.228859772E+02  1.228859772E+02  0.000000000E+00  0.00000E+00  9.000E+00
      21    -1     0     0   501   502  0.000000000E+00  0.000000000E+00 -7.514889975E+02  7.514889975E+02  0.000000000E+00  0.00000E+00  9.000E+00
      25     1     1     2     0     0 -6.773053719E+01 -4.158318479E+01  2.553766319E+01  1.503122056E+02  1.250000000E+02  0.00000E+00  9.000E+00
      25     1     1     2     0     0  9.099195728E+01  9.562050343E+01 -6.375144380E+02  6.629272024E+02  1.250000000E+02  0.00000E+00  9.000E+00
      21     1     1     2   501   511 -2.326142009E+01 -5.403731864E+01 -1.662624551E+01  6.113556665E+01  1.488923549E-06  0.00000E+00  9.000E+00
#rwgt            1           1   4.7041543771760619E-002           8      360465           0
</event>
<event>
      5   9999  3.79277E-02  6.71391E+01 -1.00000E+00  1.32145E-01
      21    -1     0     0   502   512  0.000000000E+00  0.000000000E+00  1.638544716E+03  1.638544716E+03  0.000000000E+00  0.00000E+00  9.000E+00
      21    -1     0     0   501   502  0.000000000E+00  0.000000000E+00 -9.449348513E+01  9.449348513E+01  0.000000000E+00  0.00000E+00  9.000E+00
      25     1     1     2     0     0  1.753452076E+02  1.403330010E+02  2.117481606E+02  3.330188831E+02  1.250000000E+02  0.00000E+00  9.000E+00
      25     1     1     2     0     0 -2.195550243E+02 -8.980429871E+01  5.210482757E+02  5.859910634E+02  1.250000000E+02  0.00000E+00  9.000E+00
      21     1     1     2   501   512  4.420981670E+01 -5.052870227E+01  8.112547951E+02  8.140282551E+02  1.525878906E-05  0.00000E+00  9.000E+00
#rwgt            1           1   3.3592739287646931E-002           8      360559           0
</event>
<event>
      5   9999  3.79277E-02  7.02341E+01 -1.00000E+00  1.31147E-01
      21    -1     0     0   511   501  0.000000000E+00  0.000000000E+00  1.943408970E+02  1.943408970E+02  0.000000000E+00  0.00000E+00  9.000E+00
      21    -1     0     0   501   502  0.000000000E+00  0.000000000E+00 -6.106657814E+02  6.106657814E+02  0.000000000E+00  0.00000E+00  9.000E+00
      25     1     1     2     0     0  7.203317448E+01 -1.806488384E+02 -4.070975679E+02  4.681625902E+02  1.250000000E+02  0.00000E+00  9.000E+00
      25     1     1     2     0     0 -5.058282550E+01  1.137704794E+02 -1.144750614E+02  2.103137749E+02  1.250000000E+02  0.00000E+00  9.000E+00
      21     1     1     2   511   502 -2.145034899E+01  6.687835896E+01  1.052477449E+02  1.265303133E+02  1.907348633E-06  0.00000E+00  9.000E+00
#rwgt            1           1   4.9180734013633064E-002           8      360700           0
</event>
<event>
      5   9999  3.79277E-02  7.63389E+01 -1.00000E+00  1.29342E-01
      21    -1     0     0   502   501  0.000000000E+00  0.000000000E+00  1.013396049E+03  1.013396049E+03  0.000000000E+00  0.00000E+00  9.000E+00
      21    -1     0     0   501   512  0.000000000E+00  0.000000000E+00 -1.620124625E+02  1.620124625E+02  0.000000000E+00  0.00000E+00  9.000E+00
      25     1     1     2     0     0  1.220843529E+02  2.086037152E+02  7.971208541E+02  8.422866230E+02  1.250000000E+02  0.00000E+00  9.000E+00
      25     1     1     2     0     0 -1.300468051E+02 -1.326812441E+02  9.878921263E+01  2.447463842E+02  1.250000000E+02  0.00000E+00  9.000E+00
      21     1     1     2   502   512  7.962452194E+00 -7.592247106E+01 -4.452648052E+01  8.837550410E+01  9.536743164E-07  0.00000E+00  9.000E+00
#rwgt            1           1   3.2045006918730828E-002           8      360791           0
</event>
<event>
      5   9999  3.79277E-02  9.22912E+00 -1.00000E+00  1.99873E-01
      21    -1     0     0   502   501  0.000000000E+00  0.000000000E+00  1.904209805E+02  1.904209805E+02  0.000000000E+00  0.00000E+00  9.000E+00
      21    -1     0     0   501   511  0.000000000E+00  0.000000000E+00 -4.712511903E+02  4.712511903E+02  0.000000000E+00  0.00000E+00  9.000E+00
      25     1     1     2     0     0  8.691517144E+00  1.555450458E+02 -3.474511880E+02  4.007706723E+02  1.250000000E+02  0.00000E+00  9.000E+00
      25     1     1     2     0     0 -1.493961430E+01 -1.623375437E+02  9.842036747E+01  2.277899008E+02  1.250000000E+02  0.00000E+00  9.000E+00
      21     1     1     2   502   511  6.248097158E+00  6.792497945E+00 -3.179938927E+01  3.311159773E+01  4.768371582E-07  0.00000E+00  9.000E+00
#rwgt            1           1   4.1189382260241963E-002           8      360967           0
</event>
<event>
      5   9999  3.79277E-02  7.06777E+01 -1.00000E+00  1.31009E-01
      21    -1     0     0   502   501  0.000000000E+00  0.000000000E+00  2.085212550E+02  2.085212550E+02  0.000000000E+00  0.00000E+00  9.000E+00
       2    -1     0     0   501     0  0.000000000E+00  0.000000000E+00 -4.282492840E+02  4.282492840E+02  0.000000000E+00  0.00000E+00  9.000E+00
      25     1     1     2     0     0  1.080862193E+02  1.231288644E+02 -2.120946068E+01  2.071670565E+02  1.250000000E+02  0.00000E+00  9.000E+00
      25     1     1     2     0     0 -3.792562318E+01 -1.145945748E+02  4.212038314E+01  1.787998774E+02  1.250000000E+02  0.00000E+00  9.000E+00
       2     1     1     2   502     0 -7.016059616E+01 -8.534289612E+00 -2.406389515E+02  2.508036051E+02  2.697398305E-06  0.00000E+00  9.000E+00
#rwgt            1           1   4.2448655402073092E-002           8      361413           0
</event>
<event>
      5   9999  3.79277E-02  1.23044E+01 -1.00000E+00  1.85892E-01
      21    -1     0     0   511   501  0.000000000E+00  0.000000000E+00  3.046123643E+02  3.046123643E+02  0.000000000E+00  0.00000E+00  9.000E+00
      21    -1     0     0   501   502  0.000000000E+00  0.000000000E+00 -1.520922013E+02  1.520922013E+02  0.000000000E+00  0.00000E+00  9.000E+00
      25     1     1     2     0     0 -5.418272578E+01  1.426312929E+02  1.446570945E+02  2.446019797E+02  1.250000000E+02  0.00000E+00  9.000E+00
      25     1     1     2     0     0  5.576252000E+01 -1.304287577E+02 -1.121727077E+01  1.893989087E+02  1.250000000E+02  0.00000E+00  9.000E+00
      21     1     1     2   511   502 -1.579794220E+00 -1.220253517E+01  1.908033921E+01  2.270367721E+01  3.371747881E-07  0.00000E+00  9.000E+00
#rwgt            1           1   5.1215884133176695E-002           8      361495           0
</event>
<event>
      5   9999  3.79277E-02  7.53561E+00 -1.00000E+00  2.11125E-01
      21    -1     0     0   502   512  0.000000000E+00  0.000000000E+00  1.475699351E+03  1.475699351E+03  0.000000000E+00  0.00000E+00  9.000E+00
      21    -1     0     0   501   502  0.000000000E+00  0.000000000E+00 -6.618163243E+01  6.618163243E+01  0.000000000E+00  0.00000E+00  9.000E+00
      25     1     1     2     0     0  1.844574698E+02  2.006337943E+02  8.847312894E+02  9.341589437E+02  1.250000000E+02  0.00000E+00  9.000E+00
      25     1     1     2     0     0 -1.840853780E+02 -1.931073786E+02  4.869500095E+02  5.691425110E+02  1.250000000E+02  0.00000E+00  9.000E+00
      21     1     1     2   501   512 -3.720917711E-01 -7.526415678E+00  3.783642006E+01  3.857952913E+01  4.768371582E-07  0.00000E+00  9.000E+00
#rwgt            1           1   3.4568413393782367E-002           8      361747           0
</event>
<event>
      5   9999  3.79277E-02  2.51707E+02 -1.00000E+00  1.08129E-01
      21    -1     0     0   502   501  0.000000000E+00  0.000000000E+00  1.621850332E+02  1.621850332E+02  0.000000000E+00  0.00000E+00  9.000E+00
       1    -1     0     0   501     0  0.000000000E+00  0.000000000E+00 -3.000973068E+03  3.000973068E+03  0.000000000E+00  0.00000E+00  9.000E+00
      25     1     1     2     0     0  1.234941482E+01 -1.193109843E+02  1.886631889E+01  1.742657655E+02  1.250000000E+02  0.00000E+00  9.000E+00
      25     1     1     2     0     0 -1.540424993E+02 -8.872564827E+01 -1.375986033E+02  2.572152948E+02  1.250000000E+02  0.00000E+00  9.000E+00
       1     1     1     2   502     0  1.416930845E+02  2.080366326E+02 -2.720055751E+03  2.731677041E+03  3.051757812E-05  0.00000E+00  9.000E+00
#rwgt            1           1   4.4463811366279520E-002           8      361965           0
</event>
<event>
      5   9999  3.79277E-02  5.04914E+00 -1.00000E+00  2.37777E-01
      21    -1     0     0   511   501  0.000000000E+00  0.000000000E+00  1.132454453E+03  1.132454453E+03  0.000000000E+00  0.00000E+00  9.000E+00
      21    -1     0     0   501   502  0.000000000E+00  0.000000000E+00 -2.712871273E+02  2.712871273E+02  0.000000000E+00  0.00000E+00  9.000E+00
      25     1     1     2     0     0  1.399350676E+02 -2.387843273E+01 -1.077970586E+02  2.177089997E+02  1.250000000E+02  0.00000E+00  9.000E+00
      25     1     1     2     0     0 -1.427287694E+02  2.808426780E+01 -2.379070529E+01  1.932646511E+02  1.250000000E+02  0.00000E+00  9.000E+00
      21     1     1     2   511   502  2.793701764E+00 -4.205835077E+00  9.927550897E+02  9.927679295E+02  1.078959322E-05  0.00000E+00  9.000E+00
#rwgt            1           1   2.7420348703602385E-002           8      362009           0
</event>
<event>
      5   9999  3.79277E-02  1.35237E+02 -1.00000E+00  1.18205E-01
      21    -1     0     0   502   512  0.000000000E+00  0.000000000E+00  2.351347894E+03  2.351347894E+03  0.000000000E+00  0.00000E+00  9.000E+00
      21    -1     0     0   501   502  0.000000000E+00  0.000000000E+00 -2.756993536E+02  2.756993536E+02  0.000000000E+00  0.00000E+00  9.000E+00
      25     1     1     2     0     0  2.208944232E+02  1.445636565E+02 -8.795468656E+01  3.050475764E+02  1.250000000E+02  0.00000E+00  9.000E+00
      25     1     1     2     0     0 -3.436163511E+02 -2.013832074E+02  4.932446483E+02  6.461754220E+02  1.250000000E+02  0.00000E+00  9.000E+00
      21     1     1     2   501   512  1.227219278E+02  5.681955083E+01  1.670358579E+03  1.675824249E+03  2.157918644E-05  0.00000E+00  9.000E+00
#rwgt            1           1   4.4011937947298803E-002           8      362426           0
</event>
<event>
      5   9999  3.79277E-02  6.94823E+01 -1.00000E+00  1.31384E-01
      21    -1     0     0   502   501  0.000000000E+00  0.000000000E+00  4.152869832E+01  4.152869832E+01  0.000000000E+00  0.00000E+00  9.000E+00
       2    -1     0     0   501     0  0.000000000E+00  0.000000000E+00 -2.706036718E+03  2.706036718E+03  0.000000000E+00  0.00000E+00  9.000E+00
      25     1     1     2     0     0  2.943483469E+01 -7.364394338E+01 -1.101366272E+02  1.845126460E+02  1.250000000E+02  0.00000E+00  9.000E+00
      25     1     1     2     0     0  2.519373582E+00  1.194533607E+01 -1.124076258E+03  1.131070940E+03  1.250000000E+02  0.00000E+00  9.000E+00
       2     1     1     2   502     0 -3.195420827E+01  6.169860731E+01 -1.430295134E+03  1.431981830E+03  3.051757812E-05  0.00000E+00  9.000E+00
#rwgt            1           1   4.6475915873024097E-002           8      362598           0
</event>
<event>
      5   9999  3.79277E-02  3.85445E+01 -1.00000E+00  1.45846E-01
      21    -1     0     0   502   511  0.000000000E+00  0.000000000E+00  4.305429192E+02  4.305429192E+02  0.000000000E+00  0.00000E+00  9.000E+00
      21    -1     0     0   501   502  0.000000000E+00  0.000000000E+00 -1.152284516E+02  1.152284516E+02  0.000000000E+00  0.00000E+00  9.000E+00
      25     1     1     2     0     0  1.285466124E+02 -3.770331643E+01  1.411363010E+02  2.312795431E+02  1.250000000E+02  0.00000E+00  9.000E+00
      25     1     1     2     0     0 -1.500781076E+02  6.967322149E+01  9.852718108E+01  2.295874595E+02  1.250000000E+02  0.00000E+00  9.000E+00
      21     1     1     2   501   511  2.153149521E+01 -3.196990506E+01  7.565098547E+01  8.490436808E+01  9.536743164E-07  0.00000E+00  9.000E+00
#rwgt            1           1   3.1059971572962797E-002           8      362661           0
</event>
<event>
      5   9999  3.79277E-02  1.63243E+02 -1.00000E+00  1.14956E-01
      21    -1     0     0   502   501  0.000000000E+00  0.000000000E+00  7.802683425E+01  7.802683425E+01  0.000000000E+00  0.00000E+00  9.000E+00
       1    -1     0     0   501     0  0.000000000E+00  0.000000000E+00 -1.047048990E+03  1.047048990E+03  0.000000000E+00  0.00000E+00  9.000E+00
      25     1     1     2     0     0 -2.154470964E+02 -2.235805385E+01 -5.088373307E+02  5.669724535E+02  1.250000000E+02  0.00000E+00  9.000E+00
      25     1     1     2     0     0  5.797128704E+01  6.536459370E+01 -2.192379480E+02  2.670645579E+02  1.250000000E+02  0.00000E+00  9.000E+00
       1     1     1     2   502     0  1.574758093E+02 -4.300653985E+01 -2.409468766E+02  2.910388125E+02  4.672030912E-06  0.00000E+00  9.000E+00
#rwgt            1           1   3.2863613162138296E-002           8      362827           0
</event>
<event>
      5   9999  3.79277E-02  1.00487E+01 -1.00000E+00  1.95514E-01
      21    -1     0     0   502   511  0.000000000E+00  0.000000000E+00  2.418326663E+02  2.418326663E+02  0.000000000E+00  0.00000E+00  9.000E+00
      21    -1     0     0   501   502  0.000000000E+00  0.000000000E+00 -4.531819309E+02  4.531819309E+02  0.000000000E+00  0.00000E+00  9.000E+00
      25     1     1     2     0     0 -1.531847256E+02 -1.261339492E+02 -1.996659465E+02  3.080045835E+02  1.250000000E+02  0.00000E+00  9.000E+00
      25     1     1     2     0     0  1.631749937E+02  1.272158071E+02 -1.257614586E+02  2.724901551E+02  1.250000000E+02  0.00000E+00  9.000E+00
      21     1     1     2   501   511 -9.990268109E+00 -1.081857899E+00  1.140781405E+02  1.145198586E+02  1.907348633E-06  0.00000E+00  9.000E+00
#rwgt            1           1   3.4315607501352409E-002           8      362960           0
</event>
<event>
      5   9999  3.79277E-02  9.91380E+01 -1.00000E+00  1.23997E-01
      21    -1     0     0   502   501  0.000000000E+00  0.000000000E+00  1.288296977E+02  1.288296977E+02  0.000000000E+00  0.00000E+00  9.000E+00
      21    -1     0     0   501   512  0.000000000E+00  0.000000000E+00 -7.107802363E+02  7.107802363E+02  0.000000000E+00  0.00000E+00  9.000E+00
      25     1     1     2     0     0  6.286138497E+01  2.957606870E+01 -1.451445578E+02  2.037602518E+02  1.250000000E+02  0.00000E+00  9.000E+00
      25     1     1     2     0     0 -5.696841434E+01 -1.285387858E+02 -1.995993360E-01  1.881293691E+02  1.250000000E+02  0.00000E+00  9.000E+00
      21     1     1     2   502   512 -5.892970633E+00  9.896271706E+01 -4.366063814E+02  4.477203131E+02  0.000000000E+00  0.00000E+00  9.000E+00
#rwgt            2          11   1.2006038598558265E-003           8      363238           0
</event>
<event>
      5   9999  3.79277E-02  3.90459E+01 -1.00000E+00  1.45493E-01
      21    -1     0     0   511   501  0.000000000E+00  0.000000000E+00  9.186743488E+02  9.186743488E+02  0.000000000E+00  0.00000E+00  9.000E+00
      21    -1     0     0   501   502  0.000000000E+00  0.000000000E+00 -2.534536599E+02  2.534536599E+02  0.000000000E+00  0.00000E+00  9.000E+00
      25     1     1     2     0     0  5.254398892E+01 -5.594965922E+01 -9.269543260E+01  1.735185246E+02  1.250000000E+02  0.00000E+00  9.000E+00
      25     1     1     2     0     0 -1.544783000E+01  6.813388367E+01 -7.713093035E+01  1.626500599E+02  1.250000000E+02  0.00000E+00  9.000E+00
      21     1     1     2   511   502 -3.709615892E+01 -1.218422445E+01  8.350470519E+02  8.359594243E+02  1.078959322E-05  0.00000E+00  9.000E+00
#rwgt            1           1   3.8196337906241114E-002           8      363303           0
</event>
<event>
      5   9999  3.79277E-02  2.15237E+01 -1.00000E+00  1.63780E-01
      21    -1     0     0   502   501  0.000000000E+00  0.000000000E+00  8.308669909E+01  8.308669909E+01  0.000000000E+00  0.00000E+00  9.000E+00
      21    -1     0     0   501   512  0.000000000E+00  0.000000000E+00 -4.969897061E+02  4.969897061E+02  0.000000000E+00  0.00000E+00  9.000E+00
      25     1     1     2     0     0  1.534995631E+01  1.056433953E+02 -2.916763953E+02  3.348078071E+02  1.250000000E+02  0.00000E+00  9.000E+00
      25     1     1     2     0     0 -2.186957351E+01 -1.261559509E+02 -7.625573090E+01  1.945084540E+02  1.250000000E+02  0.00000E+00  9.000E+00
      21     1     1     2   502   512  6.519617202E+00  2.051255555E+01 -4.597088078E+01  5.076014404E+01  6.743495762E-07  0.00000E+00  9.000E+00
#rwgt            1           1   2.3713920182970815E-002           8      363440           0
</event>
<event>
      5   9999  3.79277E-02  8.30895E+01 -1.00000E+00  1.27558E-01
      21    -1     0     0   502   511  0.000000000E+00  0.000000000E+00  8.825381997E+02  8.825381997E+02  0.000000000E+00  0.00000E+00  9.000E+00
      21    -1     0     0   501   502  0.000000000E+00  0.000000000E+00 -6.950388623E+01  6.950388623E+01  0.000000000E+00  0.00000E+00  9.000E+00
      25     1     1     2     0     0 -7.420631813E+00 -1.212217718E+02  8.863324185E+01  1.955265590E+02  1.250000000E+02  0.00000E+00  9.000E+00
      25     1     1     2     0     0  8.585324539E+00  3.814039422E+01  3.697357740E+02  3.922472945E+02  1.250000000E+02  0.00000E+00  9.000E+00
      21     1     1     2   501   511 -1.164692725E+00  8.308137753E+01  3.546652976E+02  3.642682324E+02  3.814697266E-06  0.00000E+00  9.000E+00
#rwgt            1           1   4.2754393288732519E-002           8      363578           0
</event>
<event>
      5   9999  3.79277E-02  1.50776E+01 -1.00000E+00  1.77173E-01
      21    -1     0     0   502   512  0.000000000E+00  0.000000000E+00  2.129396154E+02  2.129396154E+02  0.000000000E+00  0.00000E+00  9.000E+00
      21    -1     0     0   501   502  0.000000000E+00  0.000000000E+00 -3.911989370E+02  3.911989370E+02  0.000000000E+00  0.00000E+00  9.000E+00
      25     1     1     2     0     0  9.243550522E+01 -3.149025227E+01 -2.746246360E+02  3.171429477E+02  1.250000000E+02  0.00000E+00  9.000E+00
      25     1     1     2     0     0 -7.736492338E+01  3.194929486E+01 -3.525693384E+01  1.545125891E+02  1.250000000E+02  0.00000E+00  9.000E+00
      21     1     1     2   501   512 -1.507058184E+01 -4.590425844E-01  1.316222482E+02  1.324830155E+02  2.697398305E-06  0.00000E+00  9.000E+00
#rwgt            1           1   4.7510543351135810E-002           8      363649           0
</event>
<event>
      5   9999  3.79277E-02  1.14033E+02 -1.00000E+00  1.21316E-01
      21    -1     0     0   502   511  0.000000000E+00  0.000000000E+00  1.578294624E+02  1.578294624E+02  0.000000000E+00  0.00000E+00  9.000E+00
      21    -1     0     0   501   502  0.000000000E+00  0.000000000E+00 -5.964148139E+02  5.964148139E+02  0.000000000E+00  0.00000E+00  9.000E+00
      25     1     1     2     0     0 -9.789437976E+01  2.674113253E+01 -4.834154297E+02  5.095231844E+02  1.250000000E+02  0.00000E+00  9.000E+00
      25     1     1     2     0     0 -1.065066025E+01  8.209252924E+00  1.338444414E+01  1.264316880E+02  1.250000000E+02  0.00000E+00  9.000E+00
      21     1     1     2   501   511  1.085450400E+02 -3.495038545E+01  3.144563414E+01  1.182894038E+02  1.936921693E-06  0.00000E+00  9.000E+00
#rwgt            1           1   5.0732073639136753E-002           8      363819           0
</event>
<event>
      5   9999  3.79277E-02  4.30432E+01 -1.00000E+00  1.42892E-01
      21    -1     0     0   502   501  0.000000000E+00  0.000000000E+00  1.340507639E+02  1.340507639E+02  0.000000000E+00  0.00000E+00  9.000E+00
       2    -1     0     0   501     0  0.000000000E+00  0.000000000E+00 -5.109700400E+02  5.109700400E+02  0.000000000E+00  0.00000E+00  9.000E+00
      25     1     1     2     0     0  8.148959830E+01 -1.346210265E+02 -3.963780570E+01  2.048402574E+02  1.250000000E+02  0.00000E+00  9.000E+00
      25     1     1     2     0     0 -1.245325468E+02  1.344672354E+02 -2.086870490E+02  3.045735987E+02  1.250000000E+02  0.00000E+00  9.000E+00
       2     1     1     2   502     0  4.304294847E+01  1.537910454E-01 -1.285944215E+02  1.356069479E+02  0.000000000E+00  0.00000E+00  9.000E+00
#rwgt            1           1   2.3144460748910585E-002           8      363890           0
</event>
<event>
      5   9999  3.79277E-02  2.21546E+01 -1.00000E+00  1.62784E-01
      21    -1     0     0   511   501  0.000000000E+00  0.000000000E+00  1.037710770E+02  1.037710770E+02  0.000000000E+00  0.00000E+00  9.000E+00
      21    -1     0     0   501   502  0.000000000E+00  0.000000000E+00 -1.489027958E+03  1.489027958E+03  0.000000000E+00  0.00000E+00  9.000E+00
      25     1     1     2     0     0 -8.152670216E+01  8.990140413E+01 -3.637456505E+02  4.033172001E+02  1.250000000E+02  0.00000E+00  9.000E+00
      25     1     1     2     0     0  7.663003131E+01 -6.829472200E+01 -1.097999976E+03  1.109849214E+03  1.250000000E+02  0.00000E+00  9.000E+00
      21     1     1     2   511   502  4.896670848E+00 -2.160668214E+01  7.648874553E+01  7.963262077E+01  2.861022949E-06  0.00000E+00  9.000E+00
#rwgt            1           1   3.6317569101543677E-002           8      363994           0
</event>
<event>
      5   9999  3.79277E-02  6.25336E+01 -1.00000E+00  1.33751E-01
      21    -1     0     0   502   501  0.000000000E+00  0.000000000E+00  9.738856644E+02  9.738856644E+02  0.000000000E+00  0.00000E+00  9.000E+00
      21    -1     0     0   501   512  0.000000000E+00  0.000000000E+00 -7.215879532E+01  7.215879532E+01  0.000000000E+00  0.00000E+00  9.000E+00
      25     1     1     2     0     0  1.093832061E+02  9.551701631E+01  2.801387194E+02  3.393978319E+02  1.250000000E+02  0.00000E+00  9.000E+00
      25     1     1     2     0     0 -1.689338489E+02 -7.643386246E+01  6.002850089E+02  6.405840089E+02  1.250000000E+02  0.00000E+00  9.000E+00
      21     1     1     2   502   512  5.955064272E+01 -1.908315385E+01  2.130314084E+01  6.606261893E+01  8.920806376E-07  0.00000E+00  9.000E+00
#rwgt            1           1   4.8257999015543535E-002           8      364122           0
</event>
<event>
      5   9999  3.79277E-02  1.55932E+01 -1.00000E+00  1.75811E-01
      21    -1     0     0   502   511  0.000000000E+00  0.000000000E+00  6.443244185E+01  6.443244185E+01  0.000000000E+00  0.00000E+00  9.000E+00
      21    -1     0     0   501   502  0.000000000E+00  0.000000000E+00 -1.353292637E+03  1.353292637E+03  0.000000000E+00  0.00000E+00  9.000E+00
      25     1     1     2     0     0 -1.042851506E+02  1.771469582E+02 -7.881581914E+02  8.240599323E+02  1.250000000E+02  0.00000E+00  9.000E+00
      25     1     1     2     0     0  1.192354495E+02 -1.815783997E+02 -5.148494436E+02  5.726104760E+02  1.250000000E+02  0.00000E+00  9.000E+00
      21     1     1     2   501   511 -1.495029887E+01  4.431441453E+00  1.414743966E+01  2.105467071E+01  1.215700987E-06  0.00000E+00  9.000E+00
#rwgt            1           1   4.2429143601975937E-002           8      364255           0
</event>
<event>
      5   9999  3.79277E-02  3.74109E+01 -1.00000E+00  1.46666E-01
      21    -1     0     0   502   501  0.000000000E+00  0.000000000E+00  1.431433972E+03  1.431433972E+03  0.000000000E+00  0.00000E+00  9.000E+00
      21    -1     0     0   501   512  0.000000000E+00  0.000000000E+00 -8.089890037E+01  8.089890037E+01  0.000000000E+00  0.00000E+00  9.000E+00
      25     1     1     2     0     0 -2.026428161E+02  4.136108118E+01  1.031833402E+03  1.059754698E+03  1.250000000E+02  0.00000E+00  9.000E+00
      25     1     1     2     0     0  2.335260844E+02 -6.247509090E+01  3.129475654E+02  4.147273174E+02  1.250000000E+02  0.00000E+00  9.000E+00
      21     1     1     2   502   512 -3.088326834E+01  2.111400972E+01  5.754104110E+00  3.785085711E+01  6.136673773E-07  0.00000E+00  9.000E+00
#rwgt            1           1   3.1958295569808018E-002           8      364459           0
</event>
<event>
      5   9999  3.79277E-02  1.75560E+02 -1.00000E+00  1.13748E-01
      21    -1     0     0   502   501  0.000000000E+00  0.000000000E+00  1.201758944E+02  1.201758944E+02  0.000000000E+00  0.00000E+00  9.000E+00
      21    -1     0     0   511   502  0.000000000E+00  0.000000000E+00 -7.508862384E+02  7.508862384E+02  0.000000000E+00  0.00000E+00  9.000E+00
      25     1     1     2     0     0 -6.584352577E+01  2.627936998E+01 -1.035159583E+02  1.771059818E+02  1.250000000E+02  0.00000E+00  9.000E+00
      25     1     1     2     0     0  2.155722668E+02 -1.179459232E+02 -3.244500509E+02  4.257645811E+02  1.250000000E+02  0.00000E+00  9.000E+00
      21     1     1     2   511   501 -1.497287410E+02  9.166655320E+01 -2.027443348E+02  2.681915699E+02  2.697398305E-06  0.00000E+00  9.000E+00
#rwgt            2          11   1.6210826866353875E-003           8      364705           0
</event>
<event>
      5   9999  3.79277E-02  6.52839E+01 -1.00000E+00  1.32773E-01
      21    -1     0     0   502   501  0.000000000E+00  0.000000000E+00  9.822666075E+02  9.822666075E+02  0.000000000E+00  0.00000E+00  9.000E+00
      21    -1     0     0   501   512  0.000000000E+00  0.000000000E+00 -1.309254915E+02  1.309254915E+02  0.000000000E+00  0.00000E+00  9.000E+00
      25     1     1     2     0     0 -1.838371509E+02  1.803127293E+02  2.399144787E+02  3.734872628E+02  1.250000000E+02  0.00000E+00  9.000E+00
      25     1     1     2     0     0  2.383144946E+02 -2.162877579E+02  5.539080232E+02  6.526969364E+02  1.250000000E+02  0.00000E+00  9.000E+00
      21     1     1     2   502   512 -5.447734369E+01  3.597502857E+01  5.751861412E+01  8.700789980E+01  0.000000000E+00  0.00000E+00  9.000E+00
#rwgt            1           1   3.6064096230113710E-002           8      364785           0
</event>
<event>
      5   9999  3.79277E-02  2.55802E+01 -1.00000E+00  1.58008E-01
      21    -1     0     0   502   501  0.000000000E+00  0.000000000E+00  4.967145466E+01  4.967145466E+01  0.000000000E+00  0.00000E+00  9.000E+00
       2    -1     0     0   501     0  0.000000000E+00  0.000000000E+00 -1.705070325E+03  1.705070325E+03  0.000000000E+00  0.00000E+00  9.000E+00
      25     1     1     2     0     0 -1.401106818E+02  1.561341488E+02 -6.291390008E+02  6.748701785E+02  1.250000000E+02  0.00000E+00  9.000E+00
      25     1     1     2     0     0  1.149373993E+02 -1.515894653E+02 -4.620076600E+02  5.150398525E+02  1.250000000E+02  0.00000E+00  9.000E+00
       2     1     1     2   502     0  2.517328250E+01 -4.544683549E+00 -5.642522094E+02  5.648317485E+02  0.000000000E+00  0.00000E+00  9.000E+00
#rwgt            1           1   2.8103331665678875E-002           8      364952           0
</event>
<event>
      5   9999  3.79277E-02  2.81332E+01 -1.00000E+00  1.55003E-01
       2    -1     0     0   502     0  0.000000000E+00  0.000000000E+00  1.024582709E+03  1.024582709E+03  0.000000000E+00  0.00000E+00  9.000E+00
      21    -1     0     0   501   502  0.000000000E+00  0.000000000E+00 -1.337952159E+03  1.337952159E+03  0.000000000E+00  0.00000E+00  9.000E+00
      25     1     1     2     0     0  1.726961321E+02  1.898992069E+02 -3.156526862E+02  4.256140049E+02  1.250000000E+02  0.00000E+00  9.000E+00
      25     1     1     2     0     0 -1.838795684E+02 -2.157140301E+02 -9.423011139E+02  9.919176517E+02  1.250000000E+02  0.00000E+00  9.000E+00
       2     1     1     2   501     0  1.118343627E+01  2.581482323E+01  9.445843499E+02  9.450032108E+02  1.078959322E-05  0.00000E+00  9.000E+00
#rwgt            1           1  0.12027951422163703                8      365130           0
</event>
<event>
      5   9999  3.79277E-02  3.80448E+01 -1.00000E+00  1.46203E-01
      21    -1     0     0   502   501  0.000000000E+00  0.000000000E+00  1.503235338E+02  1.503235338E+02  0.000000000E+00  0.00000E+00  9.000E+00
      21    -1     0     0   501   511  0.000000000E+00  0.000000000E+00 -4.360212858E+02  4.360212858E+02  0.000000000E+00  0.00000E+00  9.000E+00
      25     1     1     2     0     0  1.688554221E+02 -2.903170551E+01 -1.199280960E+02  2.436447038E+02  1.250000000E+02  0.00000E+00  9.000E+00
      25     1     1     2     0     0 -1.621538197E+02 -8.418206126E+00 -3.674386174E+01  2.081822250E+02  1.250000000E+02  0.00000E+00  9.000E+00
      21     1     1     2   502   511 -6.701602411E+00  3.744991164E+01 -1.290257943E+02  1.345178908E+02  0.000000000E+00  0.00000E+00  9.000E+00
#rwgt            1           1   3.7155355720665091E-002           8      365324           0
</event>
<event>
      5   9999  3.79277E-02  1.46147E+02 -1.00000E+00  1.16843E-01
      21    -1     0     0   502   512  0.000000000E+00  0.000000000E+00  1.506324985E+02  1.506324985E+02  0.000000000E+00  0.00000E+00  9.000E+00
      21    -1     0     0   501   502  0.000000000E+00  0.000000000E+00 -4.853897368E+02  4.853897368E+02  0.000000000E+00  0.00000E+00  9.000E+00
      25     1     1     2     0     0 -5.343807725E+01  1.320062251E+02 -2.772506985E+02  3.358187329E+02  1.250000000E+02  0.00000E+00  9.000E+00
      25     1     1     2     0     0  4.640007523E+01  1.397088002E+01  1.873267348E+01  1.353664121E+02  1.250000000E+02  0.00000E+00  9.000E+00
      21     1     1     2   501   512  7.038002026E+00 -1.459771051E+02 -7.623921326E+01  1.648370903E+02  1.651812370E-06  0.00000E+00  9.000E+00
#rwgt            1           1   4.3892535638290438E-002           8      365470           0
</event>
<event>
      5   9999  3.79277E-02  2.55043E+01 -1.00000E+00  1.58104E-01
      21    -1     0     0   502   511  0.000000000E+00  0.000000000E+00  8.699925039E+02  8.699925039E+02  0.000000000E+00  0.00000E+00  9.000E+00
      21    -1     0     0   501   502  0.000000000E+00  0.000000000E+00 -2.057907075E+02  2.057907075E+02  0.000000000E+00  0.00000E+00  9.000E+00
      25     1     1     2     0     0 -3.344123472E+01 -1.859192960E+02  1.404319621E+02  2.665153594E+02  1.250000000E+02  0.00000E+00  9.000E+00
      25     1     1     2     0     0  1.207088800E+01  1.998397086E+02 -4.470687263E+01  2.402193163E+02  1.250000000E+02  0.00000E+00  9.000E+00
      21     1     1     2   501   511  2.137034672E+01 -1.392041259E+01  5.684767069E+02  5.690485357E+02  7.629394531E-06  0.00000E+00  9.000E+00
#rwgt            1           1   4.4255917247793285E-002           8      365526           0
</event>
<event>
      5   9999  3.79277E-02  5.91845E+01 -1.00000E+00  1.35022E-01
      21    -1     0     0   502   512  0.000000000E+00  0.000000000E+00  1.573108823E+02  1.573108823E+02  0.000000000E+00  0.00000E+00  9.000E+00
      21    -1     0     0   501   502  0.000000000E+00  0.000000000E+00 -4.146785141E+02  4.146785141E+02  0.000000000E+00  0.00000E+00  9.000E+00
      25     1     1     2     0     0 -2.235264107E+01  1.275642034E+02 -2.220386862E+02  2.858293979E+02  1.250000000E+02  0.00000E+00  9.000E+00
      25     1     1     2     0     0  1.453894707E+01 -1.862306608E+02 -2.646346113E+01  2.263151670E+02  1.250000000E+02  0.00000E+00  9.000E+00
      21     1     1     2   501   512  7.813693998E+00  5.866645745E+01 -8.865484569E+00  5.984483153E+01  4.129530925E-07  0.00000E+00  9.000E+00
#rwgt            1           1   3.8852287750710202E-002           8      365658           0
</event>
<event>
      5   9999  3.79277E-02  1.43283E+02 -1.00000E+00  1.17188E-01
      21    -1     0     0   511   501  0.000000000E+00  0.000000000E+00  8.499540598E+02  8.499540598E+02  0.000000000E+00  0.00000E+00  9.000E+00
      21    -1     0     0   501   502  0.000000000E+00  0.000000000E+00 -1.027007403E+02  1.027007403E+02  0.000000000E+00  0.00000E+00  9.000E+00
      25     1     1     2     0     0 -2.512133617E+01  4.913274970E+01  3.928376753E+02  4.159225262E+02  1.250000000E+02  0.00000E+00  9.000E+00
      25     1     1     2     0     0 -9.576740653E+01 -1.260470615E+02  6.186412027E+01  2.109773145E+02  1.250000000E+02  0.00000E+00  9.000E+00
      21     1     1     2   511   502  1.208887427E+02  7.691431180E+01  2.925515239E+02  3.257549594E+02  6.607249480E-06  0.00000E+00  9.000E+00
#rwgt            1           1   8.8131297551371945E-002           8      365720           0
</event>
<event>
      5   9999  3.79277E-02  1.01605E+02 -1.00000E+00  1.23518E-01
      21    -1     0     0   502   501  0.000000000E+00  0.000000000E+00  9.401928198E+01  9.401928198E+01  0.000000000E+00  0.00000E+00  9.000E+00
      21    -1     0     0   501   512  0.000000000E+00  0.000000000E+00 -9.141928050E+02  9.141928050E+02  0.000000000E+00  0.00000E+00  9.000E+00
      25     1     1     2     0     0 -1.362594624E+01  1.215993351E+01  1.476388252E+01  1.271868807E+02  1.250000000E+02  0.00000E+00  9.000E+00
      25     1     1     2     0     0 -3.097764904E+00  8.805891669E+01 -6.705754024E+02  6.877938203E+02  1.250000000E+02  0.00000E+00  9.000E+00
      21     1     1     2   502   512  1.672371115E+01 -1.002188502E+02 -1.643620032E+02  1.932313860E+02  1.907348633E-06  0.00000E+00  9.000E+00
#rwgt            1           1   3.9457699179821795E-002           8      365808           0
</event>
<event>
      5   9999  3.79277E-02  3.94167E+00 -1.00000E+00  2.64983E-01
      21    -1     0     0   502   501  0.000000000E+00  0.000000000E+00  1.661003765E+02  1.661003765E+02  0.000000000E+00  0.00000E+00  9.000E+00
      21    -1     0     0   501   511  0.000000000E+00  0.000000000E+00 -1.919388889E+02  1.919388889E+02  0.000000000E+00  0.00000E+00  9.000E+00
      25     1     1     2     0     0  6.887839268E+01 -2.897328150E+01 -1.113349555E+02  1.833143648E+02  1.250000000E+02  0.00000E+00  9.000E+00
      25     1     1     2     0     0 -6.502326889E+01  2.979472281E+01  8.912815964E+01  1.693652262E+02  1.250000000E+02  0.00000E+00  9.000E+00
      21     1     1     2   502   511 -3.855123791E+00 -8.214413108E-01 -3.631716507E+00  5.359674436E+00  5.960464478E-08  0.00000E+00  9.000E+00
#rwgt            1           1   3.9779639726385624E-002           8      365977           0
</event>
<event>
      5   9999  3.79277E-02  5.03870E+01 -1.00000E+00  1.38885E-01
      21    -1     0     0   502   501  0.000000000E+00  0.000000000E+00  2.436803982E+02  2.436803982E+02  0.000000000E+00  0.00000E+00  9.000E+00
      21    -1     0     0   501   512  0.000000000E+00  0.000000000E+00 -3.695097152E+02  3.695097152E+02  0.000000000E+00  0.00000E+00  9.000E+00
      25     1     1     2     0     0  9.934622697E+01 -9.927158667E+01  9.252794494E+01  2.095493768E+02  1.250000000E+02  0.00000E+00  9.000E+00
      25     1     1     2     0     0 -5.312385893E+01  1.193300992E+02 -1.287349284E+00  1.807995416E+02  1.250000000E+02  0.00000E+00  9.000E+00
      21     1     1     2   502   512 -4.622236803E+01 -2.005851255E+01 -2.170699126E+02  2.228411950E+02  0.000000000E+00  0.00000E+00  9.000E+00
#rwgt            1           1   9.7843403859048050E-002           8      366525           0
</event>
<event>
      5   9999  3.79277E-02  6.14842E+01 -1.00000E+00  1.34139E-01
      21    -1     0     0   502   501  0.000000000E+00  0.000000000E+00  1.200431914E+02  1.200431914E+02  0.000000000E+00  0.00000E+00  9.000E+00
       2    -1     0     0   501     0  0.000000000E+00  0.000000000E+00 -5.036905848E+03  5.036905848E+03  0.000000000E+00  0.00000E+00  9.000E+00
      25     1     1     2     0     0  7.335302155E+01  3.082407356E+02 -2.729516170E+02  4.364866574E+02  1.250000000E+02  0.00000E+00  9.000E+00
      25     1     1     2     0     0 -1.225976400E+02 -2.714266212E+02 -6.476192941E+02  7.236976870E+02  1.250000000E+02  0.00000E+00  9.000E+00
       2     1     1     2   502     0  4.924461850E+01 -3.681411440E+01 -3.996291745E+03  3.996764695E+03  0.000000000E+00  0.00000E+00  9.000E+00
#rwgt            1           1  0.25926982590741787                8      366647           0
</event>
<event>
      5   9999  3.79277E-02  2.89779E+01 -1.00000E+00  1.54093E-01
      21    -1     0     0   502   501  0.000000000E+00  0.000000000E+00  3.876382414E+01  3.876382414E+01  0.000000000E+00  0.00000E+00  9.000E+00
       2    -1     0     0   501     0  0.000000000E+00  0.000000000E+00 -3.291154739E+03  3.291154739E+03  0.000000000E+00  0.00000E+00  9.000E+00
      25     1     1     2     0     0 -4.518439415E+00  1.748247067E+02 -4.201027635E+02  4.719061625E+02  1.250000000E+02  0.00000E+00  9.000E+00
      25     1     1     2     0     0  2.181623482E+01 -1.515759390E+02 -7.527679122E+02  7.782902691E+02  1.250000000E+02  0.00000E+00  9.000E+00
       2     1     1     2   502     0 -1.729779541E+01 -2.324876764E+01 -2.079520239E+03  2.079722131E+03  3.051757812E-05  0.00000E+00  9.000E+00
#rwgt            1           1   3.7305674413907669E-002           8      366888           0
</event>
<event>
      5   9999  3.79277E-02  5.25413E+01 -1.00000E+00  1.37858E-01
      21    -1     0     0   502   511  0.000000000E+00  0.000000000E+00  9.622209734E+02  9.622209734E+02  0.000000000E+00  0.00000E+00  9.000E+00
      21    -1     0     0   501   502  0.000000000E+00  0.000000000E+00 -1.151015252E+03  1.151015252E+03  0.000000000E+00  0.00000E+00  9.000E+00
      25     1     1     2     0     0 -4.879673361E+01  1.844219590E+02 -4.146148896E+02  4.732051213E+02  1.250000000E+02  0.00000E+00  9.000E+00
      25     1     1     2     0     0  8.668613125E+01 -2.208223124E+02 -6.808961196E+02  7.317933484E+02  1.250000000E+02  0.00000E+00  9.000E+00
      21     1     1     2   501   511 -3.788939764E+01  3.640035337E+01  9.067167304E+02  9.082377559E+02  0.000000000E+00  0.00000E+00  9.000E+00
#rwgt            1           1   4.3029494808328565E-002           8      367017           0
</event>
<event>
      5   9999  3.79277E-02  6.10836E+01 -1.00000E+00  1.34289E-01
      21    -1     0     0   502   512  0.000000000E+00  0.000000000E+00  4.355269714E+01  4.355269714E+01  0.000000000E+00  0.00000E+00  9.000E+00
      21    -1     0     0   501   502  0.000000000E+00  0.000000000E+00 -1.432822794E+03  1.432822794E+03  0.000000000E+00  0.00000E+00  9.000E+00
      25     1     1     2     0     0  1.457267331E+02 -2.981471131E+01 -4.409309669E+02  4.818405497E+02  1.250000000E+02  0.00000E+00  9.000E+00
      25     1     1     2     0     0 -1.895678774E+02 -1.271955734E+01 -8.391346995E+02  8.694077359E+02  1.250000000E+02  0.00000E+00  9.000E+00
      21     1     1     2   501   512  4.384114431E+01  4.253426865E+01 -1.092044304E+02  1.251272055E+02  2.697398305E-06  0.00000E+00  9.000E+00
#rwgt            1           1   2.7145646721664269E-002           8      367109           0
</event>
<event>
      5   9999  3.79277E-02  1.75094E+01 -1.00000E+00  1.71280E-01
       3    -1     0     0   502     0  0.000000000E+00  0.000000000E+00  6.507336373E+02  6.507336373E+02  0.000000000E+00  0.00000E+00  9.000E+00
      21    -1     0     0   501   502  0.000000000E+00  0.000000000E+00 -1.108920280E+02  1.108920280E+02  0.000000000E+00  0.00000E+00  9.000E+00
      25     1     1     2     0     0  5.703034771E+01 -1.089172434E+02 -4.906112873E+00  1.753981084E+02  1.250000000E+02  0.00000E+00  9.000E+00
      25     1     1     2     0     0 -3.962807492E+01  1.108511703E+02  3.416032063E+02  3.823298535E+02  1.250000000E+02  0.00000E+00  9.000E+00
       3     1     1     2   501     0 -1.740227279E+01 -1.933926870E+00  2.031445158E+02  2.038977035E+02  4.672030912E-06  0.00000E+00  9.000E+00
#rwgt            1           1   3.6949472110520049E-002           8      367457           0
</event>
<event>
      5   9999  3.79277E-02  6.88870E+01 -1.00000E+00  1.31574E-01
      21    -1     0     0   502   501  0.000000000E+00  0.000000000E+00  3.213004589E+02  3.213004589E+02  0.000000000E+00  0.00000E+00  9.000E+00
      21    -1     0     0   501   511  0.000000000E+00  0.000000000E+00 -3.614218996E+02  3.614218996E+02  0.000000000E+00  0.00000E+00  9.000E+00
      25     1     1     2     0     0  1.802181408E+02 -1.085312065E+02  4.600109225E+01  2.489953846E+02  1.250000000E+02  0.00000E+00  9.000E+00
      25     1     1     2     0     0 -1.177494543E+02  1.375669686E+02  9.521112651E+01  2.397493763E+02  1.250000000E+02  0.00000E+00  9.000E+00
      21     1     1     2   502   511 -6.246868653E+01 -2.903576212E+01 -1.813336595E+02  1.939775975E+02  0.000000000E+00  0.00000E+00  9.000E+00
#rwgt            1           1   3.4784497714053252E-002           8      367900           0
</event>
<event>
      5   9999  3.79277E-02  2.13272E+01 -1.00000E+00  1.64099E-01
      21    -1     0     0   502   501  0.000000000E+00  0.000000000E+00  5.586103310E+02  5.586103310E+02  0.000000000E+00  0.00000E+00  9.000E+00
      21    -1     0     0   512   502  0.000000000E+00  0.000000000E+00 -2.900745445E+02  2.900745445E+02  0.000000000E+00  0.00000E+00  9.000E+00
      25     1     1     2     0     0  9.168005195E-01  2.815845682E+02  2.804350673E+02  4.166047726E+02  1.250000000E+02  0.00000E+00  9.000E+00
      25     1     1     2     0     0 -1.391497099E+01 -2.984930738E+02  8.335949610E+01  3.344630728E+02  1.250000000E+02  0.00000E+00  9.000E+00
      21     1     1     2   512   501  1.299817047E+01  1.690850553E+01 -9.525877689E+01  9.761703012E+01  0.000000000E+00  0.00000E+00  9.000E+00
#rwgt            1           1   3.0791760286077715E-002           8      368075           0
</event>
<event>
      5   9999  3.79277E-02  3.54251E+01 -1.00000E+00  1.48189E-01
      21    -1     0     0   502   511  0.000000000E+00  0.000000000E+00  4.198112825E+02  4.198112825E+02  0.000000000E+00  0.00000E+00  9.000E+00
      21    -1     0     0   501   502  0.000000000E+00  0.000000000E+00 -2.818549851E+02  2.818549851E+02  0.000000000E+00  0.00000E+00  9.000E+00
      25     1     1     2     0     0 -2.365837371E+02  1.018552127E+02  1.807175096E+02  3.385707714E+02  1.250000000E+02  0.00000E+00  9.000E+00
      25     1     1     2     0     0  2.590932995E+02 -7.450097262E+01 -8.392718471E+01  3.087855326E+02  1.250000000E+02  0.00000E+00  9.000E+00
      21     1     1     2   501   511 -2.250956247E+01 -2.735424006E+01  4.116597249E+01  5.430996357E+01  1.168007728E-06  0.00000E+00  9.000E+00
#rwgt            1           1   3.1468145531166343E-002           8      368262           0
</event>
<event>
      5   9999  3.79277E-02  5.60670E+01 -1.00000E+00  1.36296E-01
      21    -1     0     0   512   501  0.000000000E+00  0.000000000E+00  2.437946316E+02  2.437946316E+02  0.000000000E+00  0.00000E+00  9.000E+00
      21    -1     0     0   501   502  0.000000000E+00  0.000000000E+00 -3.088395788E+02  3.088395788E+02  0.000000000E+00  0.00000E+00  9.000E+00
      25     1     1     2     0     0  3.100476068E+01  1.773666270E+02 -1.561751781E+02  2.691391866E+02  1.250000000E+02  0.00000E+00  9.000E+00
      25     1     1     2     0     0  1.911447239E+01 -1.522356511E+02  2.935349746E+01  2.000691988E+02  1.250000000E+02  0.00000E+00  9.000E+00
      21     1     1     2   512   502 -5.011923307E+01 -2.513097588E+01  6.177673342E+01  8.342582492E+01  1.348699152E-06  0.00000E+00  9.000E+00
#rwgt            1           1   3.3953712010890043E-002           8      368417           0
</event>
<event>
      5   9999  3.79277E-02  1.23807E+02 -1.00000E+00  1.19795E-01
      21    -1     0     0   502   501  0.000000000E+00  0.000000000E+00  5.451047662E+02  5.451047662E+02  0.000000000E+00  0.00000E+00  9.000E+00
      -1    -1     0     0     0   502  0.000000000E+00  0.000000000E+00 -3.592669650E+02  3.592669650E+02  0.000000000E+00  0.00000E+00  9.000E+00
      25     1     1     2     0     0  2.267550603E+02  2.464751200E+02  2.761275928E+02  4.517070839E+02  1.250000000E+02  0.00000E+00  9.000E+00
      25     1     1     2     0     0 -2.040305402E+02 -1.247717382E+02  4.014888227E+01  2.728248169E+02  1.250000000E+02  0.00000E+00  9.000E+00
      -1     1     1     2     0   501 -2.272452007E+01 -1.217033818E+02 -1.304386739E+02  1.798398304E+02  1.907348633E-06  0.00000E+00  9.000E+00
#rwgt            1           1   2.6553704419718539E-002           8      368521           0
</event>
<event>
      5   9999  3.79277E-02  3.13154E+02 -1.00000E+00  1.04990E-01
      21    -1     0     0   502   501  0.000000000E+00  0.000000000E+00  7.081538835E+02  7.081538835E+02  0.000000000E+00  0.00000E+00  9.000E+00
       3    -1     0     0   501     0  0.000000000E+00  0.000000000E+00 -4.568792955E+02  4.568792955E+02  0.000000000E+00  0.00000E+00  9.000E+00
      25     1     1     2     0     0 -4.887792541E+01 -3.209668784E+02 -1.279658133E+02  3.706872509E+02  1.250000000E+02  0.00000E+00  9.000E+00
      25     1     1     2     0     0 -9.001641564E+01  4.029985883E+01  4.465083688E+02  4.740482645E+02  1.250000000E+02  0.00000E+00  9.000E+00
       3     1     1     2   502     0  1.388943410E+02  2.806670196E+02 -6.726796741E+01  3.202976636E+02  5.478441855E-06  0.00000E+00  9.000E+00
#rwgt            1           1   1.9010617835365787E-002           8      368588           0
</event>
<event>
      5   9999  3.79277E-02  4.52808E+01 -1.00000E+00  1.41577E-01
      21    -1     0     0   511   501  0.000000000E+00  0.000000000E+00  1.432479605E+03  1.432479605E+03  0.000000000E+00  0.00000E+00  9.000E+00
      21    -1     0     0   501   502  0.000000000E+00  0.000000000E+00 -2.907638650E+01  2.907638650E+01  0.000000000E+00  0.00000E+00  9.000E+00
      25     1     1     2     0     0 -3.484980838E+01 -5.346085833E+01  7.313072440E+02  7.446528437E+02  1.250000000E+02  0.00000E+00  9.000E+00
      25     1     1     2     0     0  6.254532791E+01  8.928412084E+01  3.063603559E+02  3.483751426E+02  1.250000000E+02  0.00000E+00  9.000E+00
      21     1     1     2   511   502 -2.769551953E+01 -3.582326251E+01  3.657356187E+02  3.685280053E+02  5.394796609E-06  0.00000E+00  9.000E+00
#rwgt            1           1   5.3414455593880750E-002           8      368800           0
</event>
<event>
      5   9999  3.79277E-02  5.58850E+01 -1.00000E+00  1.36373E-01
      21    -1     0     0   502   501  0.000000000E+00  0.000000000E+00  2.348931535E+02  2.348931535E+02  0.000000000E+00  0.00000E+00  9.000E+00
      21    -1     0     0   501   512  0.000000000E+00  0.000000000E+00 -1.537688380E+02  1.537688380E+02  0.000000000E+00  0.00000E+00  9.000E+00
      25     1     1     2     0     0  8.957506445E+01 -6.841843058E+01  2.660046458E-01  1.683147188E+02  1.250000000E+02  0.00000E+00  9.000E+00
      25     1     1     2     0     0 -3.464574318E+01  5.812740325E+01  8.266843756E+01  1.644329441E+02  1.250000000E+02  0.00000E+00  9.000E+00
      21     1     1     2   502   512 -5.492932127E+01  1.029102733E+01 -1.810126706E+00  5.591432855E+01  6.664001875E-08  0.00000E+00  9.000E+00
#rwgt            1           1   4.7991126422736938E-002           8      368901           0
</event>
<event>
      5   9999  3.79277E-02  2.88674E+01 -1.00000E+00  1.54210E-01
      21    -1     0     0   502   501  0.000000000E+00  0.000000000E+00  5.763438928E+02  5.763438928E+02  0.000000000E+00  0.00000E+00  9.000E+00
      -4    -1     0     0     0   502  0.000000000E+00  0.000000000E+00 -1.133127212E+02  1.133127212E+02  0.000000000E+00  0.00000E+00  9.000E+00
      25     1     1     2     0     0 -7.716350679E+01  1.490223413E+02  2.097352383E+02  2.962697001E+02  1.250000000E+02  0.00000E+00  9.000E+00
      25     1     1     2     0     0  9.485732885E+01 -1.718314974E+02  2.727873060E+02  3.585552825E+02  1.250000000E+02  0.00000E+00  9.000E+00
      -4     1     1     2     0   501 -1.769382206E+01  2.280915606E+01 -1.949137258E+01  3.483163138E+01  6.307962682E-07  0.00000E+00  9.000E+00
#rwgt            1           1   7.1845066207813724E-002           8      369006           0
</event>
<event>
      5   9999  3.79277E-02  2.78521E+01 -1.00000E+00  1.55315E-01
      21    -1     0     0   511   501  0.000000000E+00  0.000000000E+00  1.336605019E+02  1.336605019E+02  0.000000000E+00  0.00000E+00  9.000E+00
      21    -1     0     0   501   502  0.000000000E+00  0.000000000E+00 -6.241510306E+02  6.241510306E+02  0.000000000E+00  0.00000E+00  9.000E+00
      25     1     1     2     0     0 -1.852018808E+00 -1.222294027E+02 -1.774311785E+02  2.490989361E+02  1.250000000E+02  0.00000E+00  9.000E+00
      25     1     1     2     0     0 -2.379893052E+01  1.330814852E+02 -3.876151751E+02  4.291242184E+02  1.250000000E+02  0.00000E+00  9.000E+00
      21     1     1     2   511   502  2.565094933E+01 -1.085208259E+01  7.455582492E+01  7.958837809E+01  1.651812370E-06  0.00000E+00  9.000E+00
#rwgt            1           1   4.8503656442342280E-002           8      369219           0
</event>
<event>
      5   9999  3.79277E-02  1.25118E+01 -1.00000E+00  1.85141E-01
      21    -1     0     0   502   501  0.000000000E+00  0.000000000E+00  3.132692639E+02  3.132692639E+02  0.000000000E+00  0.00000E+00  9.000E+00
      21    -1     0     0   501   512  0.000000000E+00  0.000000000E+00 -2.986271906E+02  2.986271906E+02  0.000000000E+00  0.00000E+00  9.000E+00
      25     1     1     2     0     0  1.301255736E+02  1.218670847E+01  1.868885645E+02  2.600644465E+02  1.250000000E+02  0.00000E+00  9.000E+00
      25     1     1     2     0     0 -1.417409347E+02 -7.536029620E+00 -1.031375448E+01  1.894166250E+02  1.250000000E+02  0.00000E+00  9.000E+00
      21     1     1     2   502   512  1.161536107E+01 -4.650678846E+00 -1.619327367E+02  1.624153831E+02  1.907348633E-06  0.00000E+00  9.000E+00
#rwgt            1           1   3.9830571038899372E-002           8      369339           0
</event>
<event>
      5   9999  3.79277E-02  8.13936E+01 -1.00000E+00  1.27988E-01
      21    -1     0     0   511   501  0.000000000E+00  0.000000000E+00  7.959897083E+01  7.959897083E+01  0.000000000E+00  0.00000E+00  9.000E+00
      21    -1     0     0   501   502  0.000000000E+00  0.000000000E+00 -8.895392677E+02  8.895392677E+02  0.000000000E+00  0.00000E+00  9.000E+00
      25     1     1     2     0     0 -1.692902891E+02 -1.670928699E+01 -3.063137023E+02  3.720100624E+02  1.250000000E+02  0.00000E+00  9.000E+00
      25     1     1     2     0     0  1.089220103E+02  7.130401720E+01 -4.793353950E+02  5.121871612E+02  1.250000000E+02  0.00000E+00  9.000E+00
      21     1     1     2   511   502  6.036827885E+01 -5.459473021E+01 -2.429119963E+01  8.494101505E+01  1.545128989E-06  0.00000E+00  9.000E+00
#rwgt            1           1   3.8027971095052022E-002           8      369478           0
</event>
<event>
      5   9999  3.79277E-02  1.36304E+02 -1.00000E+00  1.18066E-01
       2    -1     0     0   502     0  0.000000000E+00  0.000000000E+00  3.148318079E+03  3.148318079E+03  0.000000000E+00  0.00000E+00  9.000E+00
      21    -1     0     0   501   502  0.000000000E+00  0.000000000E+00 -9.458971654E+01  9.458971654E+01  0.000000000E+00  0.00000E+00  9.000E+00
      25     1     1     2     0     0 -1.537577553E+02 -8.522067881E+01  1.027025459E+02  2.389075644E+02  1.250000000E+02  0.00000E+00  9.000E+00
      25     1     1     2     0     0  1.297517350E+02 -4.895286622E+01  3.278311724E+02  3.772667139E+02  1.250000000E+02  0.00000E+00  9.000E+00
       2     1     1     2   501     0  2.400602031E+01  1.341735450E+02  2.623194644E+03  2.626733517E+03  4.315837288E-05  0.00000E+00  9.000E+00
#rwgt            1           1   2.6072550727759245E-002           8      369612           0
</event>
<event>
      5   9999  3.79277E-02  3.34392E+01 -1.00000E+00  1.49837E-01
      21    -1     0     0   502   501  0.000000000E+00  0.000000000E+00  3.267864055E+02  3.267864055E+02  0.000000000E+00  0.00000E+00  9.000E+00
       1    -1     0     0   501     0  0.000000000E+00  0.000000000E+00 -4.490281829E+02  4.490281829E+02  0.000000000E+00  0.00000E+00  9.000E+00
      25     1     1     2     0     0 -2.772867660E+01 -1.122705241E+02  2.126452923E+02  2.724271837E+02  1.250000000E+02  0.00000E+00  9.000E+00
      25     1     1     2     0     0  4.713216456E+01  8.503659689E+01  8.298491332E+00  1.585765705E+02  1.250000000E+02  0.00000E+00  9.000E+00
       1     1     1     2   502     0 -1.940348796E+01  2.723392722E+01 -3.431855610E+02  3.448108342E+02  3.814697266E-06  0.00000E+00  9.000E+00
#rwgt            1           1   3.7103372603859049E-002           8      369761           0
</event>
<event>
      5   9999  3.79277E-02  1.18215E+02 -1.00000E+00  1.20645E-01
      21    -1     0     0   502   501  0.000000000E+00  0.000000000E+00  9.512732785E+01  9.512732785E+01  0.000000000E+00  0.00000E+00  9.000E+00
      21    -1     0     0   511   502  0.000000000E+00  0.000000000E+00 -2.520197170E+03  2.520197170E+03  0.000000000E+00  0.00000E+00  9.000E+00
      25     1     1     2     0     0 -1.793820866E+02  9.002456738E-01 -1.223026871E+03  1.242416383E+03  1.250000000E+02  0.00000E+00  9.000E+00
      25     1     1     2     0     0  2.164148361E+02 -1.131647506E+02 -1.469722977E+02  3.112354388E+02  1.250000000E+02  0.00000E+00  9.000E+00
      21     1     1     2   511   501 -3.703274942E+01  1.122645049E+02 -1.055070674E+03  1.061672676E+03  1.525878906E-05  0.00000E+00  9.000E+00
#rwgt            1           1   4.6306929015416311E-002           8      369908           0
</event>
<event>
      5   9999  3.79277E-02  1.41014E+01 -1.00000E+00  1.79949E-01
      21    -1     0     0   502   501  0.000000000E+00  0.000000000E+00  1.792125194E+02  1.792125194E+02  0.000000000E+00  0.00000E+00  9.000E+00
      21    -1     0     0   512   502  0.000000000E+00  0.000000000E+00 -3.805054031E+02  3.805054031E+02  0.000000000E+00  0.00000E+00  9.000E+00
      25     1     1     2     0     0 -1.430118006E+02 -1.133999162E+02 -2.393143461E+02  3.258961067E+02  1.250000000E+02  0.00000E+00  9.000E+00
      25     1     1     2     0     0  1.370025622E+02  1.006429960E+02  4.818647783E+01  2.164385625E+02  1.250000000E+02  0.00000E+00  9.000E+00
      21     1     1     2   512   501  6.009238362E+00  1.275692016E+01 -1.016501536E+01  1.738325329E+01  2.665600750E-07  0.00000E+00  9.000E+00
#rwgt            1           1   4.3173977365317209E-002           8      370033           0
</event>
<event>
      5   9999  3.79277E-02  4.35097E+01 -1.00000E+00  1.42611E-01
      21    -1     0     0   511   501  0.000000000E+00  0.000000000E+00  3.079806765E+02  3.079806765E+02  0.000000000E+00  0.00000E+00  9.000E+00
      21    -1     0     0   501   502  0.000000000E+00  0.000000000E+00 -1.645271563E+02  1.645271563E+02  0.000000000E+00  0.00000E+00  9.000E+00
      25     1     1     2     0     0 -2.350163820E+01  1.602616398E+02  6.834214807E+01  2.157122375E+02  1.250000000E+02  0.00000E+00  9.000E+00
      25     1     1     2     0     0 -2.092975167E+00 -1.250762699E+02  8.264583057E+00  1.770360335E+02  1.250000000E+02  0.00000E+00  9.000E+00
      21     1     1     2   511   502  2.559461336E+01 -3.518536997E+01  6.684678908E+01  7.975956184E+01  9.536743164E-07  0.00000E+00  9.000E+00
#rwgt            1           1   4.1665464443627356E-002           8      370287           0
</event>
<event>
      5   9999  3.79277E-02  9.26142E+01 -1.00000E+00  1.25345E-01
      21    -1     0     0   502   501  0.000000000E+00  0.000000000E+00  7.696673562E+01  7.696673562E+01  0.000000000E+00  0.00000E+00  9.000E+00
       2    -1     0     0   501     0  0.000000000E+00  0.000000000E+00 -5.860719717E+02  5.860719717E+02  0.000000000E+00  0.00000E+00  9.000E+00
      25     1     1     2     0     0  1.257691783E+02 -4.038890247E+01 -1.506408128E+02  2.361499611E+02  1.250000000E+02  0.00000E+00  9.000E+00
      25     1     1     2     0     0 -4.988791693E+01 -1.270941624E+01 -1.727096172E+02  2.193261165E+02  1.250000000E+02  0.00000E+00  9.000E+00
       2     1     1     2   502     0 -7.588126132E+01  5.309831870E+01 -1.857548062E+02  2.075626298E+02  2.697398305E-06  0.00000E+00  9.000E+00
#rwgt            1           1   1.5458336569932713E-002           8      370447           0
</event>
<event>
      5   9999  3.79277E-02  4.28538E+01 -1.00000E+00  1.43008E-01
      21    -1     0     0   502   501  0.000000000E+00  0.000000000E+00  1.643285538E+02  1.643285538E+02  0.000000000E+00  0.00000E+00  9.000E+00
       1    -1     0     0   501     0  0.000000000E+00  0.000000000E+00 -3.408256209E+02  3.408256209E+02  0.000000000E+00  0.00000E+00  9.000E+00
      25     1     1     2     0     0 -7.096812618E+01 -9.096767890E+00 -1.993391423E+02  2.459274685E+02  1.250000000E+02  0.00000E+00  9.000E+00
      25     1     1     2     0     0  1.001219141E+02  4.050544609E+01  8.338729892E+01  1.850500756E+02  1.250000000E+02  0.00000E+00  9.000E+00
       1     1     1     2   502     0 -2.915378794E+01 -3.140867820E+01 -6.054522363E+01  7.417663057E+01  1.168007728E-06  0.00000E+00  9.000E+00
#rwgt            1           1   3.1061888642002745E-002           8      370508           0
</event>
<event>
      5   9999  3.79277E-02  3.73538E+01 -1.00000E+00  1.46708E-01
      21    -1     0     0   502   501  0.000000000E+00  0.000000000E+00  7.049824234E+01  7.049824234E+01  0.000000000E+00  0.00000E+00  9.000E+00
       1    -1     0     0   501     0  0.000000000E+00  0.000000000E+00 -1.067971318E+03  1.067971318E+03  0.000000000E+00  0.00000E+00  9.000E+00
      25     1     1     2     0     0 -4.810072662E+00 -1.288761472E+01 -3.525681245E+02  3.743240706E+02  1.250000000E+02  0.00000E+00  9.000E+00
      25     1     1     2     0     0  4.216257070E+01  1.257772770E+01 -1.525967237E+01  1.333931752E+02  1.250000000E+02  0.00000E+00  9.000E+00
       1     1     1     2   502     0 -3.735249804E+01  3.098870165E-01 -6.296452788E+02  6.307523145E+02  0.000000000E+00  0.00000E+00  9.000E+00
#rwgt            1           1   4.5256159371926119E-002           8      370587           0
</event>
<event>
      5   9999  3.79277E-02  7.35592E+01 -1.00000E+00  1.30139E-01
       1    -1     0     0   502     0  0.000000000E+00  0.000000000E+00  4.371343314E+02  4.371343314E+02  0.000000000E+00  0.00000E+00  9.000E+00
      21    -1     0     0   501   502  0.000000000E+00  0.000000000E+00 -2.013964633E+02  2.013964633E+02  0.000000000E+00  0.00000E+00  9.000E+00
      25     1     1     2     0     0  1.165081141E+01  7.110203137E+01 -3.417739514E+01  1.482711523E+02  1.250000000E+02  0.00000E+00  9.000E+00
      25     1     1     2     0     0 -7.805420729E+01 -3.945489296E+01 -5.112712153E+01  1.608978881E+02  1.250000000E+02  0.00000E+00  9.000E+00
       1     1     1     2   501     0  6.640339588E+01 -3.164713841E+01  3.210423847E+02  3.293617542E+02  6.607249480E-06  0.00000E+00  9.000E+00
#rwgt            1           1   6.1282618125589702E-002           8      370661           0
</event>
<event>
      5   9999  3.79277E-02  5.12853E+01 -1.00000E+00  1.38450E-01
      21    -1     0     0   511   501  0.000000000E+00  0.000000000E+00  1.270209986E+03  1.270209986E+03  0.000000000E+00  0.00000E+00  9.000E+00
      21    -1     0     0   501   502  0.000000000E+00  0.000000000E+00 -1.035844321E+02  1.035844321E+02  0.000000000E+00  0.00000E+00  9.000E+00
      25     1     1     2     0     0 -1.239868212E+02  2.469386413E+02  3.078969898E+02  4.321770247E+02  1.250000000E+02  0.00000E+00  9.000E+00
      25     1     1     2     0     0  1.742362976E+02 -2.571938477E+02  7.353769395E+02  8.080292110E+02  1.250000000E+02  0.00000E+00  9.000E+00
      21     1     1     2   511   502 -5.024947647E+01  1.025520639E+01  1.233516243E+02  1.335881819E+02  1.348699152E-06  0.00000E+00  9.000E+00
#rwgt            1           1   2.8112201101858667E-002           8      370741           0
</event>
<event>
      5   9999  3.79277E-02  4.96209E+01 -1.00000E+00  1.39264E-01
       1    -1     0     0   502     0  0.000000000E+00  0.000000000E+00  1.380853442E+03  1.380853442E+03  0.000000000E+00  0.00000E+00  9.000E+00
      21    -1     0     0   501   502  0.000000000E+00  0.000000000E+00 -8.105660428E+01  8.105660428E+01  0.000000000E+00  0.00000E+00  9.000E+00
      25     1     1     2     0     0  1.290590648E+02 -4.072386691E-01  1.278555044E+02  2.205185662E+02  1.250000000E+02  0.00000E+00  9.000E+00
      25     1     1     2     0     0 -1.668020337E+02 -3.180617073E+01  2.926371426E+02  3.606882978E+02  1.250000000E+02  0.00000E+00  9.000E+00
       1     1     1     2   501     0  3.774296893E+01  3.221340940E+01  8.793041912E+02  8.807031827E+02  1.525878906E-05  0.00000E+00  9.000E+00
#rwgt            1           1   3.7481615916324949E-002           8      370834           0
</event>
<event>
      5   9999  3.79277E-02  5.15047E+01 -1.00000E+00  1.38345E-01
      21    -1     0     0   502   511  0.000000000E+00  0.000000000E+00  4.161510978E+02  4.161510978E+02  0.000000000E+00  0.00000E+00  9.000E+00
      21    -1     0     0   501   502  0.000000000E+00  0.000000000E+00 -1.806831946E+02  1.806831946E+02  0.000000000E+00  0.00000E+00  9.000E+00
      25     1     1     2     0     0 -1.906218501E+00 -1.672579889E+02  1.903478488E+02  2.825529545E+02  1.250000000E+02  0.00000E+00  9.000E+00
      25     1     1     2     0     0  1.927184766E+01  2.157468010E+02  6.964417349E+00  2.501831117E+02  1.250000000E+02  0.00000E+00  9.000E+00
      21     1     1     2   501   511 -1.736562916E+01 -4.848881211E+01  3.815563699E+01  6.409822626E+01  8.259061849E-07  0.00000E+00  9.000E+00
#rwgt            1           1   3.6027143208458734E-002           8      370942           0
</event>
<event>
      5   9999  3.79277E-02  1.15903E+02 -1.00000E+00  1.21012E-01
      21    -1     0     0   502   501  0.000000000E+00  0.000000000E+00  1.444072577E+02  1.444072577E+02  0.000000000E+00  0.00000E+00  9.000E+00
      21    -1     0     0   512   502  0.000000000E+00  0.000000000E+00 -4.911054444E+02  4.911054444E+02  0.000000000E+00  0.00000E+00  9.000E+00
      25     1     1     2     0     0 -1.435627400E+02 -4.710642777E+01 -1.645008723E+02  2.559586155E+02  1.250000000E+02  0.00000E+00  9.000E+00
      25     1     1     2     0     0  7.607175626E+01 -4.711920792E+01  1.114701936E+01  1.541310738E+02  1.250000000E+02  0.00000E+00  9.000E+00
      21     1     1     2   512   501  6.749098377E+01  9.422563569E+01 -1.933443338E+02  2.254230128E+02  2.697398305E-06  0.00000E+00  9.000E+00
#rwgt            2          11   1.9449970447327140E-003           8      371036           0
</event>
<event>
      5   9999  3.79277E-02  1.98111E+01 -1.00000E+00  1.66710E-01
      21    -1     0     0   502   501  0.000000000E+00  0.000000000E+00  1.694395089E+02  1.694395089E+02  0.000000000E+00  0.00000E+00  9.000E+00
      21    -1     0     0   501   511  0.000000000E+00  0.000000000E+00 -8.296638360E+02  8.296638360E+02  0.000000000E+00  0.00000E+00  9.000E+00
      25     1     1     2     0     0 -1.657639384E+02  5.129919930E+01 -1.970114917E+02  2.907710766E+02  1.250000000E+02  0.00000E+00  9.000E+00
      25     1     1     2     0     0  1.829305074E+02 -6.118802555E+01  1.440451386E+01  2.303042228E+02  1.250000000E+02  0.00000E+00  9.000E+00
      21     1     1     2   502   511 -1.716656901E+01  9.888826253E+00 -4.776173493E+02  4.780280455E+02  7.629394531E-06  0.00000E+00  9.000E+00
#rwgt            1           1   3.7230004557016798E-002           8      371131           0
</event>
<event>
      5   9999  3.79277E-02  2.60592E+01 -1.00000E+00  1.57413E-01
      21    -1     0     0   502   512  0.000000000E+00  0.000000000E+00  4.145088656E+02  4.145088656E+02  0.000000000E+00  0.00000E+00  9.000E+00
      21    -1     0     0   501   502  0.000000000E+00  0.000000000E+00 -1.592524146E+02  1.592524146E+02  0.000000000E+00  0.00000E+00  9.000E+00
      25     1     1     2     0     0  1.973373294E+02  7.499417529E+01  1.281187221E+02  2.767770851E+02  1.250000000E+02  0.00000E+00  9.000E+00
      25     1     1     2     0     0 -1.747903382E+02 -8.805994817E+01  8.472100781E+01  2.472020752E+02  1.250000000E+02  0.00000E+00  9.000E+00
      21     1     1     2   501   512 -2.254699113E+01  1.306577288E+01  4.241672108E+01  4.978211986E+01  4.768371582E-07  0.00000E+00  9.000E+00
#rwgt            1           1   2.8073488343716469E-002           8      371271           0
</event>
<event>
      5   9999  3.79277E-02  1.89149E+01 -1.00000E+00  1.68393E-01
      21    -1     0     0   502   501  0.000000000E+00  0.000000000E+00  3.333362391E+01  3.333362391E+01  0.000000000E+00  0.00000E+00  9.000E+00
      21    -1     0     0   501   511  0.000000000E+00  0.000000000E+00 -1.506594849E+03  1.506594849E+03  0.000000000E+00  0.00000E+00  9.000E+00
      25     1     1     2     0     0  2.053044913E+01 -1.644692954E+02 -8.079561477E+02  8.342000870E+02  1.250000000E+02  0.00000E+00  9.000E+00
      25     1     1     2     0     0 -3.884468115E+01  1.597403224E+02 -5.250890736E+02  5.642423371E+02  1.250000000E+02  0.00000E+00  9.000E+00
      21     1     1     2   502   511  1.831423202E+01  4.728973000E+00 -1.402160036E+02  1.414860486E+02  0.000000000E+00  0.00000E+00  9.000E+00
#rwgt            1           1   3.6983158267748090E-002           8      371513           0
</event>
<event>
      5   9999  3.79277E-02  8.75959E+01 -1.00000E+00  1.26471E-01
      21    -1     0     0   502   501  0.000000000E+00  0.000000000E+00  6.260665784E+02  6.260665784E+02  0.000000000E+00  0.00000E+00  9.000E+00
      21    -1     0     0   512   502  0.000000000E+00  0.000000000E+00 -1.422439404E+02  1.422439404E+02  0.000000000E+00  0.00000E+00  9.000E+00
      25     1     1     2     0     0 -2.505523623E+01  2.211137676E+02  4.033385585E+02  4.773112777E+02  1.250000000E+02  0.00000E+00  9.000E+00
      25     1     1     2     0     0 -1.047648046E+01 -1.410479638E+02  3.386730189E+01  1.917714235E+02  1.250000000E+02  0.00000E+00  9.000E+00
      21     1     1     2   512   501  3.553171669E+01 -8.006580379E+01  4.661677768E+01  9.922781761E+01  2.132480600E-06  0.00000E+00  9.000E+00
#rwgt            1           1   2.3847128918320533E-002           8      371789           0
</event>
<event>
      5   9999  3.79277E-02  3.46929E+01 -1.00000E+00  1.48781E-01
      21    -1     0     0   502   501  0.000000000E+00  0.000000000E+00  1.910367358E+02  1.910367358E+02  0.000000000E+00  0.00000E+00  9.000E+00
      21    -1     0     0   501   511  0.000000000E+00  0.000000000E+00 -5.982249537E+02  5.982249537E+02  0.000000000E+00  0.00000E+00  9.000E+00
      25     1     1     2     0     0 -9.683081598E+01 -7.947152365E+00 -5.978034835E+01  1.692278175E+02  1.250000000E+02  0.00000E+00  9.000E+00
      25     1     1     2     0     0  7.344927387E+01  3.357724892E+01  9.481182548E+01  1.764554044E+02  1.250000000E+02  0.00000E+00  9.000E+00
      21     1     1     2   502   511  2.338154211E+01 -2.563009655E+01 -4.422196950E+02  4.435784677E+02  9.344061824E-06  0.00000E+00  9.000E+00
#rwgt            1           1   2.5026908158585649E-002           8      371869           0
</event>
<event>
      5   9999  3.79277E-02  8.61660E+01 -1.00000E+00  1.26808E-01
      21    -1     0     0   502   512  0.000000000E+00  0.000000000E+00  1.865522677E+03  1.865522677E+03  0.000000000E+00  0.00000E+00  9.000E+00
      21    -1     0     0   501   502  0.000000000E+00  0.000000000E+00 -1.052525403E+02  1.052525403E+02  0.000000000E+00  0.00000E+00  9.000E+00
      25     1     1     2     0     0 -1.056942708E+02  1.542375428E+02  3.179155048E+02  3.894300537E+02  1.250000000E+02  0.00000E+00  9.000E+00
      25     1     1     2     0     0  1.757868515E+02 -1.041215216E+02  1.426275467E+02  2.787650005E+02  1.250000000E+02  0.00000E+00  9.000E+00
      21     1     1     2   501   512 -7.009258063E+01 -5.011602123E+01  1.299727085E+03  1.302580163E+03  2.157918644E-05  0.00000E+00  9.000E+00
#rwgt            1           1   2.7621191032520739E-002           8      371983           0
</event>
<event>
      5   9999  3.79277E-02  1.43556E+01 -1.00000E+00  1.79199E-01
      21    -1     0     0   502   501  0.000000000E+00  0.000000000E+00  1.179148643E+02  1.179148643E+02  0.000000000E+00  0.00000E+00  9.000E+00
      21    -1     0     0   501   511  0.000000000E+00  0.000000000E+00 -5.777894178E+02  5.777894178E+02  0.000000000E+00  0.00000E+00  9.000E+00
      25     1     1     2     0     0 -7.523766960E+01  1.973448216E+02 -2.212110574E+02  3.304012976E+02  1.250000000E+02  0.00000E+00  9.000E+00
      25     1     1     2     0     0  6.626488468E+01 -1.861389189E+02 -1.552272027E+02  2.806407250E+02  1.250000000E+02  0.00000E+00  9.000E+00
      21     1     1     2   502   511  8.972784926E+00 -1.120590266E+01 -8.343629340E+01  8.466225948E+01  9.536743164E-07  0.00000E+00  9.000E+00
#rwgt            1           1   2.1863044860864878E-002           8      372069           0
</event>
<event>
      5   9999  3.79277E-02  1.06742E+02 -1.00000E+00  1.22567E-01
       2    -1     0     0   502     0  0.000000000E+00  0.000000000E+00  1.680447263E+03  1.680447263E+03  0.000000000E+00  0.00000E+00  9.000E+00
      21    -1     0     0   501   502  0.000000000E+00  0.000000000E+00 -7.442330702E+01  7.442330702E+01  0.000000000E+00  0.00000E+00  9.000E+00
      25     1     1     2     0     0  3.371262828E+01  9.504228928E+01  2.911683051E+02  3.325260290E+02  1.250000000E+02  0.00000E+00  9.000E+00
      25     1     1     2     0     0 -6.462480353E+01 -1.972102416E+02  2.359783693E+02  3.381996975E+02  1.250000000E+02  0.00000E+00  9.000E+00
       2     1     1     2   501     0  3.091217525E+01  1.021679523E+02  1.078877281E+03  1.084144843E+03  0.000000000E+00  0.00000E+00  9.000E+00
#rwgt            1           1   2.4868097726495064E-002           8      372214           0
</event>
<event>
      5   9999  3.79277E-02  8.86313E+01 -1.00000E+00  1.26232E-01
      21    -1     0     0   511   501  0.000000000E+00  0.000000000E+00  3.027392836E+02  3.027392836E+02  0.000000000E+00  0.00000E+00  9.000E+00
      21    -1     0     0   501   502  0.000000000E+00  0.000000000E+00 -4.206457047E+02  4.206457047E+02  0.000000000E+00  0.00000E+00  9.000E+00
      25     1     1     2     0     0 -2.488365100E+01 -1.109807321E+02  4.685635492E+01  1.753751321E+02  1.250000000E+02  0.00000E+00  9.000E+00
      25     1     1     2     0     0 -5.741638699E+01  7.808369519E+01 -3.269409991E+02  3.631929540E+02  1.250000000E+02  0.00000E+00  9.000E+00
      21     1     1     2   511   502  8.230003799E+01  3.289703688E+01  1.621782230E+02  1.848169021E+02  1.907348633E-06  0.00000E+00  9.000E+00
#rwgt            1           1   4.4991052709940187E-002           8      372286           0
</event>
<event>
      5   9999  3.79277E-02  3.18073E+01 -1.00000E+00  1.51296E-01
      21    -1     0     0   502   501  0.000000000E+00  0.000000000E+00  1.406128907E+02  1.406128907E+02  0.000000000E+00  0.00000E+00  9.000E+00
      21    -1     0     0   501   512  0.000000000E+00  0.000000000E+00 -9.570606649E+02  9.570606649E+02  0.000000000E+00  0.00000E+00  9.000E+00
      25     1     1     2     0     0  1.734962092E+01  1.166289485E+02  2.443858241E+01  1.735671780E+02  1.250000000E+02  0.00000E+00  9.000E+00
      25     1     1     2     0     0  7.999875500E+00 -9.741683389E+01 -1.112867478E+02  1.938137708E+02  1.250000000E+02  0.00000E+00  9.000E+00
      21     1     1     2   502   512 -2.534949643E+01 -1.921211461E+01 -7.295996088E+02  7.302926068E+02  1.868812365E-05  0.00000E+00  9.000E+00
#rwgt            1           1   5.0201038667388016E-002           8      372365           0
</event>
<event>
      5   9999 -3.79277E-02  5.57863E+01 -1.00000E+00  1.36415E-01
      21    -1     0     0   511   501  0.000000000E+00  0.000000000E+00  1.433932201E+02  1.433932201E+02  0.000000000E+00  0.00000E+00  9.000E+00
      21    -1     0     0   501   502  0.000000000E+00  0.000000000E+00 -2.551130506E+03  2.551130506E+03  0.000000000E+00  0.00000E+00  9.000E+00
      25     1     1     2     0     0  7.550835299E+01  1.531281923E+02 -1.973403327E+03  1.984715458E+03  1.250000000E+02  0.00000E+00  9.000E+00
      25     1     1     2     0     0 -9.942724393E+01 -2.035266263E+02 -5.352514048E+02  5.944980495E+02  1.250000000E+02  0.00000E+00  9.000E+00
      21     1     1     2   511   502  2.391889094E+01  5.039843402E+01  1.009174467E+02  1.153102188E+02  4.672030912E-06  0.00000E+00  9.000E+00
#rwgt            1           1  -8.0238567396293439E-002           8      372487           0
</event>
<event>
      5   9999  3.79277E-02  3.78534E+01 -1.00000E+00  1.46342E-01
      21    -1     0     0   512   501  0.000000000E+00  0.000000000E+00  5.791502575E+02  5.791502575E+02  0.000000000E+00  0.00000E+00  9.000E+00
      21    -1     0     0   501   502  0.000000000E+00  0.000000000E+00 -1.669499483E+02  1.669499483E+02  0.000000000E+00  0.00000E+00  9.000E+00
      25     1     1     2     0     0 -1.579732190E+02 -2.109268436E+01  1.468139014E+01  2.030787593E+02  1.250000000E+02  0.00000E+00  9.000E+00
      25     1     1     2     0     0  1.399046001E+02  5.435529442E+01  6.136070062E+01  2.047386889E+02  1.250000000E+02  0.00000E+00  9.000E+00
      21     1     1     2   512   502  1.806861890E+01 -3.326261007E+01  3.361582185E+02  3.382827576E+02  3.814697266E-06  0.00000E+00  9.000E+00
#rwgt            1           1   3.3603718222832354E-002           8      372664           0
</event>
<event>
      5   9999  3.79277E-02  1.59833E+01 -1.00000E+00  1.74825E-01
      21    -1     0     0   502   511  0.000000000E+00  0.000000000E+00  2.079040263E+02  2.079040263E+02  0.000000000E+00  0.00000E+00  9.000E+00
      21    -1     0     0   501   502  0.000000000E+00  0.000000000E+00 -2.251274079E+02  2.251274079E+02  0.000000000E+00  0.00000E+00  9.000E+00
      25     1     1     2     0     0 -1.125886288E+02  7.826670041E+01 -2.551392760E+01  1.872907799E+02  1.250000000E+02  0.00000E+00  9.000E+00
      25     1     1     2     0     0  1.280775114E+02 -8.221118354E+01 -3.460637487E+01  1.999628186E+02  1.250000000E+02  0.00000E+00  9.000E+00
      21     1     1     2   501   511 -1.548888255E+01  3.944483130E+00  4.289692082E+01  4.577783575E+01  4.768371582E-07  0.00000E+00  9.000E+00
#rwgt            1           1   4.6688015929612005E-002           8      373060           0
</event>
<event>
      5   9999  3.79277E-02  1.02852E+02 -1.00000E+00  1.23281E-01
      21    -1     0     0   502   501  0.000000000E+00  0.000000000E+00  1.992685279E+02  1.992685279E+02  0.000000000E+00  0.00000E+00  9.000E+00
      21    -1     0     0   512   502  0.000000000E+00  0.000000000E+00 -6.644824871E+02  6.644824871E+02  0.000000000E+00  0.00000E+00  9.000E+00
      25     1     1     2     0     0 -1.177828970E+02 -1.175648130E+02 -1.245535681E+02  2.425549163E+02  1.250000000E+02  0.00000E+00  9.000E+00
      25     1     1     2     0     0  1.714964406E+02  2.052771493E+02 -3.335041910E+01  2.971312633E+02  1.250000000E+02  0.00000E+00  9.000E+00
      21     1     1     2   512   501 -5.371354362E+01 -8.771233629E+01 -3.073099720E+02  3.240648355E+02  3.814697266E-06  0.00000E+00  9.000E+00
#rwgt            1           1   3.1111222047185031E-002           8      373349           0
</event>
<event>
      5   9999  3.79277E-02  5.53036E+01 -1.00000E+00  1.36623E-01
      21    -1     0     0   511   501  0.000000000E+00  0.000000000E+00  2.020669294E+02  2.020669294E+02  0.000000000E+00  0.00000E+00  9.000E+00
      21    -1     0     0   501   502  0.000000000E+00  0.000000000E+00 -4.759478386E+02  4.759478386E+02  0.000000000E+00  0.00000E+00  9.000E+00
      25     1     1     2     0     0 -2.500946607E+02 -5.536768700E+01 -1.041098289E+02  3.034415537E+02  1.250000000E+02  0.00000E+00  9.000E+00
      25     1     1     2     0     0  2.437700163E+02  4.268902288E-01 -1.632062524E+02  3.188813007E+02  1.250000000E+02  0.00000E+00  9.000E+00
      21     1     1     2   511   502  6.324644382E+00  5.494079677E+01 -6.564827924E+00  5.569191361E+01  6.899736466E-07  0.00000E+00  9.000E+00
#rwgt            1           1   4.0398200611563975E-002           8      373519           0
</event>
<event>
      5   9999  3.79277E-02  9.94233E+01 -1.00000E+00  1.23941E-01
      21    -1     0     0   502   512  0.000000000E+00  0.000000000E+00  3.152080237E+02  3.152080237E+02  0.000000000E+00  0.00000E+00  9.000E+00
      21    -1     0     0   501   502  0.000000000E+00  0.000000000E+00 -3.359718848E+02  3.359718848E+02  0.000000000E+00  0.00000E+00  9.000E+00
      25     1     1     2     0     0  1.546172878E+02  6.052143484E+01 -1.080630982E+02  2.342476957E+02  1.250000000E+02  0.00000E+00  9.000E+00
      25     1     1     2     0     0 -2.495397739E+02 -3.094585781E+01 -5.597544583E+00  2.808630937E+02  1.250000000E+02  0.00000E+00  9.000E+00
      21     1     1     2   501   512  9.492248614E+01 -2.957557703E+01  9.289678166E+01  1.360691191E+02  2.336015456E-06  0.00000E+00  9.000E+00
#rwgt            1           1   3.2860663800457240E-002           8      373587           0
</event>
<event>
      5   9999  3.79277E-02  6.41325E+01 -1.00000E+00  1.33176E-01
      21    -1     0     0   502   501  0.000000000E+00  0.000000000E+00  1.204446083E+02  1.204446083E+02  0.000000000E+00  0.00000E+00  9.000E+00
       2    -1     0     0   501     0  0.000000000E+00  0.000000000E+00 -1.317797287E+03  1.317797287E+03  0.000000000E+00  0.00000E+00  9.000E+00
      25     1     1     2     0     0 -3.215144573E+01 -2.744496102E+01 -3.406590127E+02  3.653224661E+02  1.250000000E+02  0.00000E+00  9.000E+00
      25     1     1     2     0     0 -1.797868472E+01 -1.255441268E+01  6.937475683E+01  1.446329951E+02  1.250000000E+02  0.00000E+00  9.000E+00
       2     1     1     2   502     0  5.013013045E+01  3.999937370E+01 -9.260684233E+02  9.282864345E+02  0.000000000E+00  0.00000E+00  9.000E+00
#rwgt            1           1   4.3820762986206442E-002           8      373692           0
</event>
<event>
      5   9999  3.79277E-02  2.36963E+01 -1.00000E+00  1.60513E-01
      21    -1     0     0   511   501  0.000000000E+00  0.000000000E+00  3.741041584E+02  3.741041584E+02  0.000000000E+00  0.00000E+00  9.000E+00
      21    -1     0     0   501   502  0.000000000E+00  0.000000000E+00 -3.308601664E+02  3.308601664E+02  0.000000000E+00  0.00000E+00  9.000E+00
      25     1     1     2     0     0 -1.266196251E+02  2.386798519E+02 -1.429767602E+02  3.302543794E+02  1.250000000E+02  0.00000E+00  9.000E+00
      25     1     1     2     0     0  1.312727021E+02 -2.154448544E+02  1.231055447E+02  3.072929917E+02  1.250000000E+02  0.00000E+00  9.000E+00
      21     1     1     2   511   502 -4.653077021E+00 -2.323499751E+01  6.311520749E+01  6.741695374E+01  1.348699152E-06  0.00000E+00  9.000E+00
#rwgt            1           1   4.0336990504264598E-002           8      373841           0
</event>
<event>
      5   9999  3.79277E-02  4.12494E+00 -1.00000E+00  2.60362E-01
      21    -1     0     0   502   512  0.000000000E+00  0.000000000E+00  1.208359568E+02  1.208359568E+02  0.000000000E+00  0.00000E+00  9.000E+00
      21    -1     0     0   501   502  0.000000000E+00  0.000000000E+00 -2.832271147E+02  2.832271147E+02  0.000000000E+00  0.00000E+00  9.000E+00
      25     1     1     2     0     0 -1.059182861E+02 -6.611680817E+01 -1.219889452E+02  2.147007648E+02  1.250000000E+02  0.00000E+00  9.000E+00
      25     1     1     2     0     0  1.075650396E+02  6.989878509E+01 -4.336116896E+01  1.842858347E+02  1.250000000E+02  0.00000E+00  9.000E+00
      21     1     1     2   501   512 -1.646753522E+00 -3.781976922E+00  2.958956223E+00  5.076472055E+00  5.960464478E-08  0.00000E+00  9.000E+00
#rwgt            1           1   3.1348209431852701E-002           8      374077           0
</event>
<event>
      5   9999  3.79277E-02  5.99748E+01 -1.00000E+00  1.34713E-01
      21    -1     0     0   502   511  0.000000000E+00  0.000000000E+00  6.965035526E+02  6.965035526E+02  0.000000000E+00  0.00000E+00  9.000E+00
      21    -1     0     0   501   502  0.000000000E+00  0.000000000E+00 -1.337873305E+02  1.337873305E+02  0.000000000E+00  0.00000E+00  9.000E+00
      25     1     1     2     0     0  6.548846605E+01 -1.971798524E+02  1.470817373E+02  2.835959641E+02  1.250000000E+02  0.00000E+00  9.000E+00
      25     1     1     2     0     0 -7.092527270E+01  2.569077435E+02  3.310054638E+02  4.429690734E+02  1.250000000E+02  0.00000E+00  9.000E+00
      21     1     1     2   501   511  5.436806648E+00 -5.972789101E+01  8.462902108E+01  1.037258456E+02  1.651812370E-06  0.00000E+00  9.000E+00
#rwgt            1           1   6.3176987468315182E-002           8      374514           0
</event>
<event>
      5   9999  3.79277E-02  4.60206E+01 -1.00000E+00  1.41162E-01
      21    -1     0     0   502   512  0.000000000E+00  0.000000000E+00  3.093796996E+02  3.093796996E+02  0.000000000E+00  0.00000E+00  9.000E+00
      21    -1     0     0   501   502  0.000000000E+00  0.000000000E+00 -2.445609586E+02  2.445609586E+02  0.000000000E+00  0.00000E+00  9.000E+00
      25     1     1     2     0     0  2.067588660E+02 -2.626769158E+01  3.331362953E+01  2.453039302E+02  1.250000000E+02  0.00000E+00  9.000E+00
      25     1     1     2     0     0 -2.171072706E+02  7.110967969E+01  1.990617577E+01  2.611769694E+02  1.250000000E+02  0.00000E+00  9.000E+00
      21     1     1     2   501   512  1.034840467E+01 -4.484198811E+01  1.159893574E+01  4.745975861E+01  7.152557373E-07  0.00000E+00  9.000E+00
#rwgt            1           1   3.2569618572068061E-002           8      374747           0
</event>
<event>
      5   9999  3.79277E-02  1.04126E+02 -1.00000E+00  1.23043E-01
      21    -1     0     0   502   501  0.000000000E+00  0.000000000E+00  9.139802569E+02  9.139802569E+02  0.000000000E+00  0.00000E+00  9.000E+00
       1    -1     0     0   501     0  0.000000000E+00  0.000000000E+00 -1.401473050E+02  1.401473050E+02  0.000000000E+00  0.00000E+00  9.000E+00
      25     1     1     2     0     0  5.895187366E+01  9.826816132E+00  3.851278020E+01  1.438058551E+02  1.250000000E+02  0.00000E+00  9.000E+00
      25     1     1     2     0     0 -2.102438657E+01 -1.067994495E+02  7.797069934E+02  7.971299410E+02  1.250000000E+02  0.00000E+00  9.000E+00
       1     1     1     2   502     0 -3.792748708E+01  9.697263339E+01 -4.438682167E+01  1.131917658E+02  1.784161275E-06  0.00000E+00  9.000E+00
#rwgt            1           1   4.2329532604212426E-002           8      374904           0
</event>
<event>
      5   9999  3.79277E-02  4.91233E+01 -1.00000E+00  1.39515E-01
      21    -1     0     0   502   501  0.000000000E+00  0.000000000E+00  4.475077096E+02  4.475077096E+02  0.000000000E+00  0.00000E+00  9.000E+00
      21    -1     0     0   511   502  0.000000000E+00  0.000000000E+00 -1.182854612E+02  1.182854612E+02  0.000000000E+00  0.00000E+00  9.000E+00
      25     1     1     2     0     0  2.192335232E+01 -1.302072230E+02  8.953162844E+01  2.026708336E+02  1.250000000E+02  0.00000E+00  9.000E+00
      25     1     1     2     0     0 -5.005750272E+01  1.704759247E+02  2.227919779E+02  3.111736812E+02  1.250000000E+02  0.00000E+00  9.000E+00
      21     1     1     2   511   501  2.813415041E+01 -4.026870169E+01  1.689864219E+01  5.194865603E+01  8.596304120E-07  0.00000E+00  9.000E+00
#rwgt            1           1   4.6325863100648200E-002           8      375016           0
</event>
<event>
      5   9999  3.79277E-02  5.78189E+01 -1.00000E+00  1.35568E-01
      21    -1     0     0   502   501  0.000000000E+00  0.000000000E+00  2.928887558E+02  2.928887558E+02  0.000000000E+00  0.00000E+00  9.000E+00
      21    -1     0     0   512   502  0.000000000E+00  0.000000000E+00 -6.377486863E+02  6.377486863E+02  0.000000000E+00  0.00000E+00  9.000E+00
      25     1     1     2     0     0 -1.177753223E+02 -2.049858643E+02  1.447967470E+01  2.678150334E+02  1.250000000E+02  0.00000E+00  9.000E+00
      25     1     1     2     0     0  8.332094757E+01  1.585539053E+02  7.018935405E+01  2.294194120E+02  1.250000000E+02  0.00000E+00  9.000E+00
      21     1     1     2   512   501  3.445437477E+01  4.643195899E+01 -4.295289592E+02  4.334029967E+02  7.629394531E-06  0.00000E+00  9.000E+00
#rwgt            1           1   4.6292639422372536E-002           8      375091           0
</event>
<event>
      5   9999  3.79277E-02  1.71976E+01 -1.00000E+00  1.71967E-01
      21    -1     0     0   502   501  0.000000000E+00  0.000000000E+00  1.532765858E+03  1.532765858E+03  0.000000000E+00  0.00000E+00  9.000E+00
      21    -1     0     0   501   511  0.000000000E+00  0.000000000E+00 -4.399004362E+01  4.399004362E+01  0.000000000E+00  0.00000E+00  9.000E+00
      25     1     1     2     0     0  4.241980300E+01 -6.356631876E+01  3.030973158E+02  3.366498172E+02  1.250000000E+02  0.00000E+00  9.000E+00
      25     1     1     2     0     0 -2.522391728E+01  6.380599095E+01  1.205477162E+03  1.213881229E+03  1.250000000E+02  0.00000E+00  9.000E+00
      21     1     1     2   502   511 -1.719588571E+01 -2.396721877E-01 -1.979866376E+01  2.622485490E+01  1.862108630E-06  0.00000E+00  9.000E+00
#rwgt            1           1   3.5200285277904246E-002           8      375172           0
</event>
<event>
      5   9999  3.79277E-02  3.68772E+01 -1.00000E+00  1.47064E-01
      21    -1     0     0   502   501  0.000000000E+00  0.000000000E+00  5.968735524E+02  5.968735524E+02  0.000000000E+00  0.00000E+00  9.000E+00
      21    -1     0     0   501   512  0.000000000E+00  0.000000000E+00 -1.453046732E+02  1.453046732E+02  0.000000000E+00  0.00000E+00  9.000E+00
      25     1     1     2     0     0  6.736441289E+01  2.129811001E+02  1.484793794E+02  2.959223534E+02  1.250000000E+02  0.00000E+00  9.000E+00
      25     1     1     2     0     0 -4.142424116E+01 -2.391925294E+02  3.049560207E+02  4.093314164E+02  1.250000000E+02  0.00000E+00  9.000E+00
      21     1     1     2   502   512 -2.594017172E+01  2.621142928E+01 -1.866520802E+00  3.692445577E+01  7.183534380E-07  0.00000E+00  9.000E+00
#rwgt            1           1   3.4797714181492211E-002           8      375354           0
</event>
<event>
      5   9999  3.79277E-02  3.59032E+01 -1.00000E+00  1.47812E-01
      21    -1     0     0   502   511  0.000000000E+00  0.000000000E+00  2.046587507E+02  2.046587507E+02  0.000000000E+00  0.00000E+00  9.000E+00
      21    -1     0     0   501   502  0.000000000E+00  0.000000000E+00 -2.705649537E+02  2.705649537E+02  0.000000000E+00  0.00000E+00  9.000E+00
      25     1     1     2     0     0  1.791718663E+02  5.671789151E+01 -4.320873299E+01  2.298074662E+02  1.250000000E+02  0.00000E+00  9.000E+00
      25     1     1     2     0     0 -1.484170834E+02 -7.524305518E+01 -2.393107125E+01  2.094918714E+02  1.250000000E+02  0.00000E+00  9.000E+00
      21     1     1     2   501   511 -3.075478292E+01  1.852516367E+01  1.233601264E+00  3.592436685E+01  2.117852927E-07  0.00000E+00  9.000E+00
#rwgt            1           1   3.0507939467411468E-002           8      375612           0
</event>
<event>
      5   9999  3.79277E-02  2.02818E+02 -1.00000E+00  1.11427E-01
      21    -1     0     0   502   501  0.000000000E+00  0.000000000E+00  7.683592878E+02  7.683592878E+02  0.000000000E+00  0.00000E+00  9.000E+00
      21    -1     0     0   512   502  0.000000000E+00  0.000000000E+00 -2.252833387E+02  2.252833387E+02  0.000000000E+00  0.00000E+00  9.000E+00
      25     1     1     2     0     0 -2.202757636E+02 -5.260939662E+01  2.023615992E+02  3.284271266E+02  1.250000000E+02  0.00000E+00  9.000E+00
      25     1     1     2     0     0  5.604670943E+01 -6.640353760E+01  4.205453193E+02  4.472516395E+02  1.250000000E+02  0.00000E+00  9.000E+00
      21     1     1     2   512   501  1.642290542E+02  1.190129342E+02 -7.983096948E+01  2.179638604E+02  3.303624740E-06  0.00000E+00  9.000E+00
#rwgt            2          11   2.3783334492991533E-003           8      375778           0
</event>
<event>
      5   9999  3.79277E-02  7.91611E+01 -1.00000E+00  1.28571E-01
      21    -1     0     0   502   501  0.000000000E+00  0.000000000E+00  6.042540381E+02  6.042540381E+02  0.000000000E+00  0.00000E+00  9.000E+00
      21    -1     0     0   511   502  0.000000000E+00  0.000000000E+00 -1.396429033E+02  1.396429033E+02  0.000000000E+00  0.00000E+00  9.000E+00
      25     1     1     2     0     0 -2.230099412E+02  6.800505223E+01  1.498171537E+02  3.040202305E+02  1.250000000E+02  0.00000E+00  9.000E+00
      25     1     1     2     0     0  1.522908959E+02 -1.035761262E+02  2.661668684E+02  3.469731009E+02  1.250000000E+02  0.00000E+00  9.000E+00
      21     1     1     2   511   501  7.071904528E+01  3.557107398E+01  4.862711270E+01  9.290361004E+01  2.023048729E-06  0.00000E+00  9.000E+00
#rwgt            1           1   2.9455933168938922E-002           8      375798           0
</event>
<event>
      5   9999  3.79277E-02  9.54647E+01  7.55638E-03  1.24741E-01
      -1    -1     0     0     0   501  0.000000000E+00  0.000000000E+00  1.511529135E+02  1.511529135E+02  0.000000000E+00  0.00000E+00  9.000E+00
       1    -1     0     0   502     0  0.000000000E+00  0.000000000E+00 -5.566819491E+02  5.566819491E+02  0.000000000E+00  0.00000E+00  9.000E+00
      25     1     1     2     0     0 -2.031208633E+02  1.001687514E+02 -2.083810420E+02  3.321739341E+02  1.250000000E+02  0.00000E+00  9.000E+00
      25     1     1     2     0     0  1.177927982E+02 -5.735960385E+01 -2.122612522E+02  2.790073595E+02  1.250000000E+02  0.00000E+00  9.000E+00
      21     1     1     2   502   501  8.532806511E+01 -4.280914756E+01  1.511325860E+01  9.665356898E+01  1.685873940E-07  0.00000E+00  9.000E+00
#rwgt            3           5   2.3160569075494043E-005           8      375874           0
</event>
<event>
      5   9999  3.79277E-02  7.18859E+01 -1.00000E+00  1.30639E-01
      21    -1     0     0   511   501  0.000000000E+00  0.000000000E+00  6.323994650E+02  6.323994650E+02  0.000000000E+00  0.00000E+00  9.000E+00
      21    -1     0     0   501   502  0.000000000E+00  0.000000000E+00 -2.589413990E+02  2.589413990E+02  0.000000000E+00  0.00000E+00  9.000E+00
      25     1     1     2     0     0 -8.119075694E+01  2.137440409E+02 -1.921231438E+01  2.612901970E+02  1.250000000E+02  0.00000E+00  9.000E+00
      25     1     1     2     0     0  9.974454134E+00 -2.039550650E+02  8.879012606E+00  2.395850479E+02  1.250000000E+02  0.00000E+00  9.000E+00
      21     1     1     2   511   502  7.121630281E+01 -9.788975817E+00  3.837913678E+02  3.904656192E+02  7.629394531E-06  0.00000E+00  9.000E+00
#rwgt            1           1   3.8607954576324002E-002           8      375953           0
</event>
<event>
      5   9999  3.79277E-02  3.07318E+01 -1.00000E+00  1.52316E-01
      21    -1     0     0   502   512  0.000000000E+00  0.000000000E+00  3.999682082E+02  3.999682082E+02  0.000000000E+00  0.00000E+00  9.000E+00
      21    -1     0     0   501   502  0.000000000E+00  0.000000000E+00 -1.181142421E+02  1.181142421E+02  0.000000000E+00  0.00000E+00  9.000E+00
      25     1     1     2     0     0 -1.693628063E+01 -2.780571278E+01 -5.960514526E+01  1.422595115E+02  1.250000000E+02  0.00000E+00  9.000E+00
      25     1     1     2     0     0 -9.657489337E+00  1.240388330E+01  2.830782914E+02  3.098474504E+02  1.250000000E+02  0.00000E+00  9.000E+00
      21     1     1     2   501   512  2.659376997E+01  1.540182948E+01  5.838081992E+01  6.597548853E+01  6.743495762E-07  0.00000E+00  9.000E+00
#rwgt            1           1   4.1588021799684613E-002           8      376102           0
</event>
<event>
      5   9999  3.79277E-02  1.98543E+01 -1.00000E+00  1.66631E-01
      21    -1     0     0   502   501  0.000000000E+00  0.000000000E+00  1.262480852E+03  1.262480852E+03  0.000000000E+00  0.00000E+00  9.000E+00
      21    -1     0     0   511   502  0.000000000E+00  0.000000000E+00 -4.768690298E+02  4.768690298E+02  0.000000000E+00  0.00000E+00  9.000E+00
      25     1     1     2     0     0 -8.075132986E+01  1.817558765E+01  1.874488038E+02  2.400274636E+02  1.250000000E+02  0.00000E+00  9.000E+00
      25     1     1     2     0     0  6.423017459E+01 -2.918678439E+01  1.043609346E+03  1.053433838E+03  1.250000000E+02  0.00000E+00  9.000E+00
      21     1     1     2   511   501  1.652115527E+01  1.101119674E+01 -4.454463277E+02  4.458885801E+02  7.629394531E-06  0.00000E+00  9.000E+00
#rwgt            1           1   4.1922393067083390E-002           8      376484           0
</event>
<event>
      5   9999  3.79277E-02  2.83380E+01 -1.00000E+00  1.54779E-01
      21    -1     0     0   502   501  0.000000000E+00  0.000000000E+00  2.726114542E+02  2.726114542E+02  0.000000000E+00  0.00000E+00  9.000E+00
      21    -1     0     0   512   502  0.000000000E+00  0.000000000E+00 -2.867522876E+02  2.867522876E+02  0.000000000E+00  0.00000E+00  9.000E+00
      25     1     1     2     0     0  2.779809309E+01 -1.448157731E+02 -1.673559031E+02  2.556899302E+02  1.250000000E+02  0.00000E+00  9.000E+00
      25     1     1     2     0     0 -2.191430932E+00  1.569541599E+02  1.763125231E+02  2.671151746E+02  1.250000000E+02  0.00000E+00  9.000E+00
      21     1     1     2   512   501 -2.560666216E+01 -1.213838687E+01 -2.309745335E+01  3.655863693E+01  8.259061849E-07  0.00000E+00  9.000E+00
#rwgt            1           1   4.0997238191712290E-002           8      376618           0
</event>
<event>
      5   9999  3.79277E-02  1.06599E+02 -1.00000E+00  1.22592E-01
      21    -1     0     0   502   501  0.000000000E+00  0.000000000E+00  1.089290854E+02  1.089290854E+02  0.000000000E+00  0.00000E+00  9.000E+00
       2    -1     0     0   501     0  0.000000000E+00  0.000000000E+00 -1.454335901E+03  1.454335901E+03  0.000000000E+00  0.00000E+00  9.000E+00
      25     1     1     2     0     0  2.338731805E+02 -4.145289412E+01 -4.470737763E+02  5.214546657E+02  1.250000000E+02  0.00000E+00  9.000E+00
      25     1     1     2     0     0 -1.583651738E+02  1.166989732E+02 -1.315143910E+02  2.676176632E+02  1.250000000E+02  0.00000E+00  9.000E+00
       2     1     1     2   502     0 -7.550800671E+01 -7.524607906E+01 -7.668186481E+02  7.741926573E+02  0.000000000E+00  0.00000E+00  9.000E+00
#rwgt            2          13   5.3244535201287706E-004           8      376740           0
</event>
<event>
      5   9999  3.79277E-02  1.07533E+01 -1.00000E+00  1.92180E-01
      21    -1     0     0   511   501  0.000000000E+00  0.000000000E+00  1.760349488E+02  1.760349488E+02  0.000000000E+00  0.00000E+00  9.000E+00
      21    -1     0     0   501   502  0.000000000E+00  0.000000000E+00 -5.230624516E+02  5.230624516E+02  0.000000000E+00  0.00000E+00  9.000E+00
      25     1     1     2     0     0  1.444387983E+02  2.295329085E+02 -1.897121839E+02  3.537847301E+02  1.250000000E+02  0.00000E+00  9.000E+00
      25     1     1     2     0     0 -1.514339015E+02 -2.213657415E+02 -1.559136896E+02  3.344683792E+02  1.250000000E+02  0.00000E+00  9.000E+00
      21     1     1     2   511   502  6.995103214E+00 -8.167166967E+00 -1.401629200E+00  1.084429111E+01  1.763129170E-07  0.00000E+00  9.000E+00
#rwgt            1           1   3.6817302157818227E-002           8      376834           0
</event>
<event>
      5   9999  3.79277E-02  6.68245E+01 -1.00000E+00  1.32250E-01
      21    -1     0     0   512   501  0.000000000E+00  0.000000000E+00  6.628400380E+02  6.628400380E+02  0.000000000E+00  0.00000E+00  9.000E+00
      21    -1     0     0   501   502  0.000000000E+00  0.000000000E+00 -1.235111691E+02  1.235111691E+02  0.000000000E+00  0.00000E+00  9.000E+00
      25     1     1     2     0     0 -3.125420226E+01 -1.762454762E+02  1.377554466E+02  2.581489030E+02  1.250000000E+02  0.00000E+00  9.000E+00
      25     1     1     2     0     0  1.672245552E+01  2.414708379E+02  2.880146285E+02  3.964407047E+02  1.250000000E+02  0.00000E+00  9.000E+00
      21     1     1     2   512   502  1.453174674E+01 -6.522536174E+01  1.135587937E+02  1.317615995E+02  1.348699152E-06  0.00000E+00  9.000E+00
#rwgt            1           1   3.9790861644195263E-002           8      377291           0
</event>
<event>
      5   9999  3.79277E-02  2.42826E+01 -1.00000E+00  1.59704E-01
      21    -1     0     0   502   501  0.000000000E+00  0.000000000E+00  8.259355698E+01  8.259355698E+01  0.000000000E+00  0.00000E+00  9.000E+00
      21    -1     0     0   511   502  0.000000000E+00  0.000000000E+00 -6.185132795E+02  6.185132795E+02  0.000000000E+00  0.00000E+00  9.000E+00
      25     1     1     2     0     0 -9.468041769E+01 -7.804172534E+01 -3.255385523E+02  3.696690972E+02  1.250000000E+02  0.00000E+00  9.000E+00
      25     1     1     2     0     0  1.143062249E+02  9.234116107E+01 -9.784831659E+01  2.163148080E+02  1.250000000E+02  0.00000E+00  9.000E+00
      21     1     1     2   511   501 -1.962580723E+01 -1.429943573E+01 -1.125328536E+02  1.151229313E+02  1.348699152E-06  0.00000E+00  9.000E+00
#rwgt            1           1   3.8805704103401444E-002           8      377393           0
</event>
<event>
      5   9999  3.79277E-02  2.66428E+02 -1.00000E+00  1.07294E-01
      21    -1     0     0   502   501  0.000000000E+00  0.000000000E+00  9.831829030E+02  9.831829030E+02  0.000000000E+00  0.00000E+00  9.000E+00
       2    -1     0     0   501     0  0.000000000E+00  0.000000000E+00 -3.838046233E+02  3.838046233E+02  0.000000000E+00  0.00000E+00  9.000E+00
      25     1     1     2     0     0  1.044702399E+02 -1.386341415E+01  7.056661323E+02  7.243589687E+02  1.250000000E+02  0.00000E+00  9.000E+00
      25     1     1     2     0     0  9.159390483E+01 -1.665329487E+02  1.503685755E+02  2.726873208E+02  1.250000000E+02  0.00000E+00  9.000E+00
       2     1     1     2   502     0 -1.960641447E+02  1.803963628E+02 -2.566564282E+02  3.699412368E+02  3.814697266E-06  0.00000E+00  9.000E+00
#rwgt            1           1   3.4308954858199327E-002           8      377568           0
</event>
<event>
      5   9999  3.79277E-02  9.87019E+00 -1.00000E+00  1.96415E-01
      21    -1     0     0   502   511  0.000000000E+00  0.000000000E+00  4.850634647E+01  4.850634647E+01  0.000000000E+00  0.00000E+00  9.000E+00
      21    -1     0     0   501   502  0.000000000E+00  0.000000000E+00 -1.276245654E+03  1.276245654E+03  0.000000000E+00  0.00000E+00  9.000E+00
      25     1     1     2     0     0  1.923728660E+02 -3.095215467E+01 -6.945561739E+02  7.321192759E+02  1.250000000E+02  0.00000E+00  9.000E+00
      25     1     1     2     0     0 -1.845534280E+02  3.697519640E+01 -5.365662547E+02  5.821988308E+02  1.250000000E+02  0.00000E+00  9.000E+00
      21     1     1     2   501   511 -7.819437942E+00 -6.023041733E+00  3.383120662E+00  1.043389414E+01  6.743495762E-07  0.00000E+00  9.000E+00
#rwgt            1           1   4.4948189475071176E-002           8      377689           0
</event>
<event>
      5   9999  3.79277E-02  9.87147E+01 -1.00000E+00  1.24081E-01
      21    -1     0     0   502   512  0.000000000E+00  0.000000000E+00  8.787719081E+01  8.787719081E+01  0.000000000E+00  0.00000E+00  9.000E+00
      21    -1     0     0   501   502  0.000000000E+00  0.000000000E+00 -8.355966873E+02  8.355966873E+02  0.000000000E+00  0.00000E+00  9.000E+00
      25     1     1     2     0     0 -7.696314527E+01 -4.145567546E+01 -2.301704794E+02  2.761256025E+02  1.250000000E+02  0.00000E+00  9.000E+00
      25     1     1     2     0     0  1.708924012E+02  1.109310909E+01 -5.051723529E+02  5.478607268E+02  1.250000000E+02  0.00000E+00  9.000E+00
      21     1     1     2   501   512 -9.392925593E+01  3.036256637E+01 -1.237666421E+01  9.948754884E+01  1.535904256E-06  0.00000E+00  9.000E+00
#rwgt            1           1   3.9763733276552374E-002           8      378005           0
</event>
<event>
      5   9999  3.79277E-02  7.93093E+01 -1.00000E+00  1.28532E-01
      21    -1     0     0   502   501  0.000000000E+00  0.000000000E+00  9.841709134E+01  9.841709134E+01  0.000000000E+00  0.00000E+00  9.000E+00
      21    -1     0     0   501   511  0.000000000E+00  0.000000000E+00 -7.880458259E+02  7.880458259E+02  0.000000000E+00  0.00000E+00  9.000E+00
      25     1     1     2     0     0  1.129113408E+02 -8.531649112E+00 -3.325665264E+02  3.728904053E+02  1.250000000E+02  0.00000E+00  9.000E+00
      25     1     1     2     0     0 -1.788998980E+02  5.252575877E+01 -1.021814596E+02  2.466377496E+02  1.250000000E+02  0.00000E+00  9.000E+00
      21     1     1     2   502   511  6.598855720E+01 -4.399410966E+01 -2.548807485E+02  2.669347623E+02  4.672030912E-06  0.00000E+00  9.000E+00
#rwgt            1           1   2.9913170695709038E-002           8      378105           0
</event>
<event>
      5   9999  3.79277E-02  1.67318E+02 -1.00000E+00  1.14544E-01
      21    -1     0     0   502   512  0.000000000E+00  0.000000000E+00  3.084479382E+02  3.084479382E+02  0.000000000E+00  0.00000E+00  9.000E+00
      21    -1     0     0   501   502  0.000000000E+00  0.000000000E+00 -4.111563917E+02  4.111563917E+02  0.000000000E+00  0.00000E+00  9.000E+00
      25     1     1     2     0     0 -9.240022356E+01  8.608100006E+01  1.445897980E+02  2.290828443E+02  1.250000000E+02  0.00000E+00  9.000E+00
      25     1     1     2     0     0 -4.908084299E+01  3.240995345E+00 -2.884696597E+02  3.182124727E+02  1.250000000E+02  0.00000E+00  9.000E+00
      21     1     1     2   501   512  1.414810665E+02 -8.932199541E+01  4.117140829E+01  1.723090129E+02  3.814697266E-06  0.00000E+00  9.000E+00
#rwgt            1           1   4.8387613264239661E-002           8      378301           0
</event>
<event>
      5   9999  3.79277E-02  6.33182E+01 -1.00000E+00  1.33466E-01
      21    -1     0     0   511   501  0.000000000E+00  0.000000000E+00  1.044624007E+02  1.044624007E+02  0.000000000E+00  0.00000E+00  9.000E+00
      21    -1     0     0   501   502  0.000000000E+00  0.000000000E+00 -5.222430562E+02  5.222430562E+02  0.000000000E+00  0.00000E+00  9.000E+00
      25     1     1     2     0     0  3.808901234E+00 -4.052378834E+01 -4.139552348E+01  1.378233453E+02  1.250000000E+02  0.00000E+00  9.000E+00
      25     1     1     2     0     0 -2.311362311E+01  1.008273560E+02 -3.914958813E+02  4.237858190E+02  1.250000000E+02  0.00000E+00  9.000E+00
      21     1     1     2   511   502  1.930472187E+01 -6.030356769E+01  1.511074924E+01  6.509629256E+01  8.920806376E-07  0.00000E+00  9.000E+00
#rwgt            1           1   3.0698275890539580E-002           8      378381           0
</event>
<event>
      5   9999  3.79277E-02  5.86941E+01 -1.00000E+00  1.35216E-01
       1    -1     0     0   502     0  0.000000000E+00  0.000000000E+00  6.737202909E+02  6.737202909E+02  0.000000000E+00  0.00000E+00  9.000E+00
      21    -1     0     0   501   502  0.000000000E+00  0.000000000E+00 -1.070067900E+02  1.070067900E+02  0.000000000E+00  0.00000E+00  9.000E+00
      25     1     1     2     0     0 -3.924607218E+01  1.645870200E+02  1.462673846E+02  2.562192208E+02  1.250000000E+02  0.00000E+00  9.000E+00
      25     1     1     2     0     0  9.079265329E+01 -1.926575015E+02  3.801215953E+02  4.532964218E+02  1.250000000E+02  0.00000E+00  9.000E+00
       1     1     1     2   501     0 -5.154658111E+01  2.807048150E+01  4.032452093E+01  7.121143829E+01  6.743495762E-07  0.00000E+00  9.000E+00
#rwgt            1           1   1.4409452546361754E-002           8      378458           0
</event>
<event>
      5   9999  3.79277E-02  2.43238E+01 -1.00000E+00  1.59648E-01
      21    -1     0     0   511   501  0.000000000E+00  0.000000000E+00  1.547221104E+03  1.547221104E+03  0.000000000E+00  0.00000E+00  9.000E+00
      21    -1     0     0   501   502  0.000000000E+00  0.000000000E+00 -2.633113056E+01  2.633113056E+01  0.000000000E+00  0.00000E+00  9.000E+00
      25     1     1     2     0     0 -1.063709130E+02 -3.252369120E+01  3.943775975E+02  4.284054750E+02  1.250000000E+02  0.00000E+00  9.000E+00
      25     1     1     2     0     0  1.290496538E+02  2.373043298E+01  9.761478322E+02  9.928275464E+02  1.250000000E+02  0.00000E+00  9.000E+00
      21     1     1     2   511   502 -2.267874083E+01  8.793258218E+00  1.503645436E+02  1.523192130E+02  0.000000000E+00  0.00000E+00  9.000E+00
#rwgt            1           1   6.3137989812989473E-002           8      378730           0
</event>
<event>
      5   9999  3.79277E-02  7.20987E+01 -1.00000E+00  1.30574E-01
      21    -1     0     0   502   512  0.000000000E+00  0.000000000E+00  6.658275836E+01  6.658275836E+01  0.000000000E+00  0.00000E+00  9.000E+00
      21    -1     0     0   501   502  0.000000000E+00  0.000000000E+00 -1.161690234E+03  1.161690234E+03  0.000000000E+00  0.00000E+00  9.000E+00
      25     1     1     2     0     0 -8.359171963E+01  1.339909863E+02 -7.719606133E+02  7.978028256E+02  1.250000000E+02  0.00000E+00  9.000E+00
      25     1     1     2     0     0  1.215199848E+01 -1.242649614E+02 -3.105353590E+02  3.572767288E+02  1.250000000E+02  0.00000E+00  9.000E+00
      21     1     1     2   501   512  7.143972115E+01 -9.726024838E+00 -1.261150301E+01  7.319343773E+01  1.327458468E-06  0.00000E+00  9.000E+00
#rwgt            1           1   4.5247082407734396E-002           8      378913           0
</event>
<event>
      5   9999  3.79277E-02  1.94031E+01 -1.00000E+00  1.67462E-01
      21    -1     0     0   502   501  0.000000000E+00  0.000000000E+00  7.319548965E+01  7.319548965E+01  0.000000000E+00  0.00000E+00  9.000E+00
      21    -1     0     0   511   502  0.000000000E+00  0.000000000E+00 -9.822490029E+02  9.822490029E+02  0.000000000E+00  0.00000E+00  9.000E+00
      25     1     1     2     0     0 -1.089629562E+02  1.623146014E+02 -3.698584701E+02  4.366225413E+02  1.250000000E+02  0.00000E+00  9.000E+00
      25     1     1     2     0     0  8.956825714E+01 -1.628847000E+02 -2.785142197E+02  3.574200173E+02  1.250000000E+02  0.00000E+00  9.000E+00
      21     1     1     2   511   501  1.939469909E+01  5.700986073E-01 -2.606808235E+02  2.614019340E+02  0.000000000E+00  0.00000E+00  9.000E+00
#rwgt            1           1   3.1896715401635835E-002           8      378957           0
</event>
<event>
      5   9999  3.79277E-02  2.54018E+01 -1.00000E+00  1.58234E-01
      21    -1     0     0   502   501  0.000000000E+00  0.000000000E+00  4.840355566E+02  4.840355566E+02  0.000000000E+00  0.00000E+00  9.000E+00
      21    -1     0     0   501   512  0.000000000E+00  0.000000000E+00 -2.429899161E+02  2.429899161E+02  0.000000000E+00  0.00000E+00  9.000E+00
      25     1     1     2     0     0 -2.182034909E+02  1.856124175E+02  2.078485971E+02  3.753541958E+02  1.250000000E+02  0.00000E+00  9.000E+00
      25     1     1     2     0     0  2.003915339E+02 -2.037228031E+02  5.675538809E+01  3.170266889E+02  1.250000000E+02  0.00000E+00  9.000E+00
      21     1     1     2   502   512  1.781195698E+01  1.811038559E+01 -2.355834469E+01  3.464458807E+01  6.743495762E-07  0.00000E+00  9.000E+00
#rwgt            1           1   2.7299472923155037E-002           8      379093           0
</event>
<event>
      5   9999  3.79277E-02  2.66519E+01 -1.00000E+00  1.56697E-01
      21    -1     0     0   502   501  0.000000000E+00  0.000000000E+00  2.685410976E+02  2.685410976E+02  0.000000000E+00  0.00000E+00  9.000E+00
       1    -1     0     0   501     0  0.000000000E+00  0.000000000E+00 -2.146724003E+02  2.146724003E+02  0.000000000E+00  0.00000E+00  9.000E+00
      25     1     1     2     0     0  7.206601821E+01 -1.312380247E+02  1.431438758E+02  2.419340804E+02  1.250000000E+02  0.00000E+00  9.000E+00
      25     1     1     2     0     0 -9.216419659E+01  1.137340908E+02 -9.398504531E+01  2.142145450E+02  1.250000000E+02  0.00000E+00  9.000E+00
       1     1     1     2   502     0  2.009817838E+01  1.750393387E+01  4.709866834E+00  2.706487245E+01  5.527507362E-07  0.00000E+00  9.000E+00
#rwgt            1           1   2.4236104564057542E-002           8      379289           0
</event>
<event>
      5   9999  3.79277E-02  1.88341E+01 -1.00000E+00  1.68551E-01
      21    -1     0     0   502   501  0.000000000E+00  0.000000000E+00  6.554846257E+01  6.554846257E+01  0.000000000E+00  0.00000E+00  9.000E+00
      21    -1     0     0   511   502  0.000000000E+00  0.000000000E+00 -6.398546701E+02  6.398546701E+02  0.000000000E+00  0.00000E+00  9.000E+00
      25     1     1     2     0     0 -2.257702754E+01  1.183026312E+02 -3.048152141E+02  3.507742144E+02  1.250000000E+02  0.00000E+00  9.000E+00
      25     1     1     2     0     0  1.650880049E+01 -1.361323459E+02 -1.645292288E+02  2.479907725E+02  1.250000000E+02  0.00000E+00  9.000E+00
      21     1     1     2   511   501  6.068227046E+00  1.782971473E+01 -1.049617646E+02  1.066381458E+02  1.348699152E-06  0.00000E+00  9.000E+00
#rwgt            1           1   4.0147014800346235E-002           8      379417           0
</event>
<event>
      5   9999  3.79277E-02  3.94490E+01 -1.00000E+00  1.45215E-01
       2    -1     0     0   502     0  0.000000000E+00  0.000000000E+00  3.400917173E+02  3.400917173E+02  0.000000000E+00  0.00000E+00  9.000E+00
      21    -1     0     0   501   502  0.000000000E+00  0.000000000E+00 -6.816619066E+02  6.816619066E+02  0.000000000E+00  0.00000E+00  9.000E+00
      25     1     1     2     0     0  3.967584806E+01  6.829910345E+01 -2.480777911E+02  2.888018886E+02  1.250000000E+02  0.00000E+00  9.000E+00
      25     1     1     2     0     0 -1.427819335E+01 -3.811323502E+01 -4.014767145E+02  4.224512254E+02  1.250000000E+02  0.00000E+00  9.000E+00
       2     1     1     2   501     0 -2.539765471E+01 -3.018586843E+01  3.079843163E+02  3.105005099E+02  0.000000000E+00  0.00000E+00  9.000E+00
#rwgt            1           1   7.3798408304188712E-002           8      379572           0
</event>
<event>
      5   9999  3.79277E-02  9.94516E+01 -1.00000E+00  1.23935E-01
       2    -1     0     0   502     0  0.000000000E+00  0.000000000E+00  1.020908123E+03  1.020908123E+03  0.000000000E+00  0.00000E+00  9.000E+00
      21    -1     0     0   501   502  0.000000000E+00  0.000000000E+00 -7.895779555E+01  7.895779555E+01  0.000000000E+00  0.00000E+00  9.000E+00
      25     1     1     2     0     0 -1.816760096E+00 -1.659456717E+02  1.357632570E+02  2.481892998E+02  1.250000000E+02  0.00000E+00  9.000E+00
      25     1     1     2     0     0  7.221161327E+01  9.569472764E+01  4.615076149E+02  4.929363819E+02  1.250000000E+02  0.00000E+00  9.000E+00
       2     1     1     2   501     0 -7.039485317E+01  7.025094406E+01  3.446794559E+02  3.587402373E+02  0.000000000E+00  0.00000E+00  9.000E+00
#rwgt            1           1   4.2598040940629751E-002           8      379752           0
</event>
<event>
      5   9999  3.79277E-02  9.73967E+01 -1.00000E+00  1.24345E-01
      21    -1     0     0   502   501  0.000000000E+00  0.000000000E+00  1.833126074E+02  1.833126074E+02  0.000000000E+00  0.00000E+00  9.000E+00
      21    -1     0     0   501   511  0.000000000E+00  0.000000000E+00 -3.720848393E+02  3.720848393E+02  0.000000000E+00  0.00000E+00  9.000E+00
      25     1     1     2     0     0  1.236827071E+00 -3.638594885E+01 -2.226105137E+02  2.578873937E+02  1.250000000E+02  0.00000E+00  9.000E+00
      25     1     1     2     0     0 -5.844552575E+01 -4.243845067E+01  1.036117017E+02  1.776999896E+02  1.250000000E+02  0.00000E+00  9.000E+00
      21     1     1     2   502   511  5.720869868E+01  7.882439952E+01 -6.977341993E+01  1.198100634E+02  1.907348633E-06  0.00000E+00  9.000E+00
#rwgt            1           1   3.9949878560586120E-002           8      379857           0
</event>
<event>
      5   9999  3.79277E-02  8.97624E+01 -1.00000E+00  1.25975E-01
      21    -1     0     0   502   501  0.000000000E+00  0.000000000E+00  4.511535291E+02  4.511535291E+02  0.000000000E+00  0.00000E+00  9.000E+00
       2    -1     0     0   501     0  0.000000000E+00  0.000000000E+00 -1.189391459E+03  1.189391459E+03  0.000000000E+00  0.00000E+00  9.000E+00
      25     1     1     2     0     0 -1.646965887E+00  3.164734941E+02  1.379659775E+01  3.405488674E+02  1.250000000E+02  0.00000E+00  9.000E+00
      25     1     1     2     0     0 -8.770662221E+01 -3.079166811E+02  1.631236215E+02  3.804463826E+02  1.250000000E+02  0.00000E+00  9.000E+00
       2     1     1     2   502     0  8.935358810E+01 -8.556812988E+00 -9.151581489E+02  9.195497378E+02  1.078959322E-05  0.00000E+00  9.000E+00
#rwgt            1           1   3.7291348217392321E-002           8      379935           0
</event>
<event>
      5   9999  3.79277E-02  6.58947E+00 -1.00000E+00  2.19331E-01
      21    -1     0     0   502   501  0.000000000E+00  0.000000000E+00  1.951731114E+03  1.951731114E+03  0.000000000E+00  0.00000E+00  9.000E+00
      21    -1     0     0   511   502  0.000000000E+00  0.000000000E+00 -2.282166176E+01  2.282166176E+01  0.000000000E+00  0.00000E+00  9.000E+00
      25     1     1     2     0     0  7.167905676E+01  6.284776082E+01  1.520551148E+03  1.528655789E+03  1.250000000E+02  0.00000E+00  9.000E+00
      25     1     1     2     0     0 -7.417484381E+01 -6.894629530E+01  4.087773284E+02  4.392942104E+02  1.250000000E+02  0.00000E+00  9.000E+00
      21     1     1     2   511   501  2.495787057E+00  6.098534478E+00 -4.190238452E-01  6.602776446E+00  4.298152060E-07  0.00000E+00  9.000E+00
#rwgt            1           1  0.10952948558258657                8      380028           0
</event>
<event>
      5   9999  3.79277E-02  4.12161E+01 -1.00000E+00  1.44038E-01
      21    -1     0     0   512   501  0.000000000E+00  0.000000000E+00  1.120897931E+02  1.120897931E+02  0.000000000E+00  0.00000E+00  9.000E+00
      21    -1     0     0   501   502  0.000000000E+00  0.000000000E+00 -6.398645904E+02  6.398645904E+02  0.000000000E+00  0.00000E+00  9.000E+00
      25     1     1     2     0     0 -1.494713952E+02  1.034072429E+02 -4.348301056E+02  4.875827895E+02  1.250000000E+02  0.00000E+00  9.000E+00
      25     1     1     2     0     0  1.357397316E+02 -6.454584154E+01 -1.043625526E+02  2.216032102E+02  1.250000000E+02  0.00000E+00  9.000E+00
      21     1     1     2   512   502  1.373166362E+01 -3.886140138E+01  1.141786092E+01  4.276838378E+01  7.152557373E-07  0.00000E+00  9.000E+00
#rwgt            1           1   3.2225953985863344E-002           8      380392           0
</event>
<event>
      5   9999  3.79277E-02  8.37652E+01 -1.00000E+00  1.27390E-01
      21    -1     0     0   502   511  0.000000000E+00  0.000000000E+00  1.786016326E+02  1.786016326E+02  0.000000000E+00  0.00000E+00  9.000E+00
      21    -1     0     0   501   502  0.000000000E+00  0.000000000E+00 -9.777781729E+02  9.777781729E+02  0.000000000E+00  0.00000E+00  9.000E+00
      25     1     1     2     0     0 -1.518611421E+02 -9.889149732E+01 -7.254780780E+02  7.581456169E+02  1.250000000E+02  0.00000E+00  9.000E+00
      25     1     1     2     0     0  1.085312368E+02  2.720383438E+01 -1.909232331E+02  2.541569572E+02  1.250000000E+02  0.00000E+00  9.000E+00
      21     1     1     2   501   511  4.332990528E+01  7.168766293E+01  1.172247709E+02  1.440772314E+02  2.336015456E-06  0.00000E+00  9.000E+00
#rwgt            1           1   4.2401595998692206E-002           8      380506           0
</event>
<event>
      5   9999  3.79277E-02  1.83995E+02 -1.00000E+00  1.12983E-01
       3    -1     0     0   502     0  0.000000000E+00  0.000000000E+00  1.006454680E+03  1.006454680E+03  0.000000000E+00  0.00000E+00  9.000E+00
      21    -1     0     0   501   502  0.000000000E+00  0.000000000E+00 -1.586061321E+02  1.586061321E+02  0.000000000E+00  0.00000E+00  9.000E+00
      25     1     1     2     0     0  7.166446223E+01  1.680162084E+02  1.368465568E+02  2.602253284E+02  1.250000000E+02  0.00000E+00  9.000E+00
      25     1     1     2     0     0 -3.805439705E+01 -3.489156933E+02  5.192012533E+02  6.390502637E+02  1.250000000E+02  0.00000E+00  9.000E+00
       3     1     1     2   501     0 -3.361006518E+01  1.808994849E+02  1.918007377E+02  2.657852199E+02  2.697398305E-06  0.00000E+00  9.000E+00
#rwgt            1           1   3.4064008353375114E-002           8      380604           0
</event>
<event>
      5   9999  3.79277E-02  1.74323E+01 -1.00000E+00  1.71448E-01
      21    -1     0     0   502   501  0.000000000E+00  0.000000000E+00  1.180517120E+03  1.180517120E+03  0.000000000E+00  0.00000E+00  9.000E+00
      21    -1     0     0   501   511  0.000000000E+00  0.000000000E+00 -3.784785355E+02  3.784785355E+02  0.000000000E+00  0.00000E+00  9.000E+00
      25     1     1     2     0     0  8.766643932E+01  1.396529550E+02  5.363889697E+02  5.749143234E+02  1.250000000E+02  0.00000E+00  9.000E+00
      25     1     1     2     0     0 -1.036487684E+02 -1.326922604E+02  6.070429128E+02  6.422432570E+02  1.250000000E+02  0.00000E+00  9.000E+00
      21     1     1     2   502   511  1.598232907E+01 -6.960694670E+00 -3.413932977E+02  3.418380754E+02  5.394796609E-06  0.00000E+00  9.000E+00
#rwgt            1           1   2.6305235257893321E-002           8      380736           0
</event>
<event>
      5   9999  3.79277E-02  5.43882E+01 -1.00000E+00  1.37023E-01
      -5    -1     0     0     0   501  0.000000000E+00  0.000000000E+00  1.503676580E+02  1.503676580E+02  0.000000000E+00  0.00000E+00  9.000E+00
      21    -1     0     0   501   502  0.000000000E+00  0.000000000E+00 -5.987142741E+02  5.987142741E+02  0.000000000E+00  0.00000E+00  9.000E+00
      25     1     1     2     0     0 -1.604690825E+02 -4.383551222E+01 -1.825684128E+02  2.768178172E+02  1.250000000E+02  0.00000E+00  9.000E+00
      25     1     1     2     0     0  1.345348025E+02 -3.971305259E+00 -3.363066658E+02  3.832004147E+02  1.250000000E+02  0.00000E+00  9.000E+00
      -5     1     1     2     0   502  2.593428001E+01  4.780681748E+01  7.052846250E+01  8.906370024E+01  9.536743164E-07  0.00000E+00  9.000E+00
#rwgt            1           1   3.9918148681416986E-002           8      381014           0
</event>
<event>
      5   9999  3.79277E-02  1.13025E+01 -1.00000E+00  1.89805E-01
      21    -1     0     0   502   511  0.000000000E+00  0.000000000E+00  9.521286326E+01  9.521286326E+01  0.000000000E+00  0.00000E+00  9.000E+00
      21    -1     0     0   501   502  0.000000000E+00  0.000000000E+00 -1.886074114E+03  1.886074114E+03  0.000000000E+00  0.00000E+00  9.000E+00
      25     1     1     2     0     0 -1.338613586E+02 -1.041679995E+02 -1.278278662E+03  1.295527372E+03  1.250000000E+02  0.00000E+00  9.000E+00
      25     1     1     2     0     0  1.375425924E+02  9.348180682E+01 -5.806318777E+02  6.167780722E+02  1.250000000E+02  0.00000E+00  9.000E+00
      21     1     1     2   501   511 -3.681233772E+00  1.068619272E+01  6.804928859E+01  6.898153285E+01  1.907348633E-06  0.00000E+00  9.000E+00
#rwgt            1           1  0.14563258975297730                8      381105           0
</event>
<event>
      5   9999  3.79277E-02  6.80595E+01 -1.00000E+00  1.31842E-01
      21    -1     0     0   502   501  0.000000000E+00  0.000000000E+00  3.604228679E+02  3.604228679E+02  0.000000000E+00  0.00000E+00  9.000E+00
      21    -1     0     0   501   512  0.000000000E+00  0.000000000E+00 -4.833256306E+02  4.833256306E+02  0.000000000E+00  0.00000E+00  9.000E+00
      25     1     1     2     0     0 -3.531937593E+01  1.808003189E+02  1.324187779E+02  2.590288524E+02  1.250000000E+02  0.00000E+00  9.000E+00
      25     1     1     2     0     0  1.010994986E+02 -1.633339470E+02  7.986101186E+01  2.426970706E+02  1.250000000E+02  0.00000E+00  9.000E+00
      21     1     1     2   502   512 -6.578012271E+01 -1.746637190E+01 -3.351825524E+02  3.420225755E+02  3.814697266E-06  0.00000E+00  9.000E+00
#rwgt            1           1   3.6729654224694833E-002           8      381433           0
</event>
<event>
      5   9999  3.79277E-02  1.65742E+01 -1.00000E+00  1.73396E-01
      21    -1     0     0   502   501  0.000000000E+00  0.000000000E+00  2.504153972E+02  2.504153972E+02  0.000000000E+00  0.00000E+00  9.000E+00
      21    -1     0     0   511   502  0.000000000E+00  0.000000000E+00 -1.793624485E+02  1.793624485E+02  0.000000000E+00  0.00000E+00  9.000E+00
      25     1     1     2     0     0  5.531288648E+01  1.151531226E+02  1.400169688E+01  1.792785670E+02  1.250000000E+02  0.00000E+00  9.000E+00
      25     1     1     2     0     0 -3.959901687E+01 -1.204235796E+02  1.001897707E+02  2.042863452E+02  1.250000000E+02  0.00000E+00  9.000E+00
      21     1     1     2   511   501 -1.571386961E+01  5.270456983E+00 -4.313851892E+01  4.621293358E+01  4.768371582E-07  0.00000E+00  9.000E+00
#rwgt            1           1   4.0997660663388301E-002           8      381536           0
</event>
<event>
      5   9999  3.79277E-02  6.18060E+01 -1.00000E+00  1.34019E-01
      21    -1     0     0   502   501  0.000000000E+00  0.000000000E+00  9.344691268E+01  9.344691268E+01  0.000000000E+00  0.00000E+00  9.000E+00
       2    -1     0     0   501     0  0.000000000E+00  0.000000000E+00 -1.469120316E+03  1.469120316E+03  0.000000000E+00  0.00000E+00  9.000E+00
      25     1     1     2     0     0  1.161455375E+01  2.508507524E+02 -2.757198120E+02  3.933286318E+02  1.250000000E+02  0.00000E+00  9.000E+00
      25     1     1     2     0     0 -6.385598511E+01 -2.178231945E+02 -4.737258646E+02  5.399682636E+02  1.250000000E+02  0.00000E+00  9.000E+00
       2     1     1     2   502     0  5.224143136E+01 -3.302755787E+01 -6.262277269E+02  6.292703335E+02  1.078959322E-05  0.00000E+00  9.000E+00
#rwgt            1           1   3.9595116320837585E-002           8      381765           0
</event>
<event>
      5   9999  3.79277E-02  2.45829E+01 -1.00000E+00  1.59300E-01
      21    -1     0     0   502   511  0.000000000E+00  0.000000000E+00  1.423945348E+02  1.423945348E+02  0.000000000E+00  0.00000E+00  9.000E+00
      21    -1     0     0   501   502  0.000000000E+00  0.000000000E+00 -7.360530402E+02  7.360530402E+02  0.000000000E+00  0.00000E+00  9.000E+00
      25     1     1     2     0     0 -2.090830805E+02 -1.294245413E+02 -2.033490341E+02  3.426985207E+02  1.250000000E+02  0.00000E+00  9.000E+00
      25     1     1     2     0     0  1.845914076E+02  1.315404335E+02 -4.223527986E+02  4.953622512E+02  1.250000000E+02  0.00000E+00  9.000E+00
      21     1     1     2   501   511  2.449167282E+01 -2.115892188E+00  3.204332732E+01  4.038680308E+01  0.000000000E+00  0.00000E+00  9.000E+00
#rwgt            1           1  0.12026865684070245                8      381889           0
</event>
<event>
      5   9999  3.79277E-02  6.88420E+01 -1.00000E+00  1.31589E-01
      21    -1     0     0   502   501  0.000000000E+00  0.000000000E+00  3.165379270E+02  3.165379270E+02  0.000000000E+00  0.00000E+00  9.000E+00
      21    -1     0     0   501   512  0.000000000E+00  0.000000000E+00 -1.789089577E+02  1.789089577E+02  0.000000000E+00  0.00000E+00  9.000E+00
      25     1     1     2     0     0 -1.189888109E+01  2.627930767E+01  2.193454207E+02  2.541054879E+02  1.250000000E+02  0.00000E+00  9.000E+00
      25     1     1     2     0     0  5.586952547E+01 -7.924913131E+01 -5.915052930E+01  1.688952747E+02  1.250000000E+02  0.00000E+00  9.000E+00
      21     1     1     2   502   512 -4.397064437E+01  5.296982364E+01 -2.256592208E+01  7.244612220E+01  8.596304120E-07  0.00000E+00  9.000E+00
#rwgt            1           1   3.7068164870035530E-002           8      382144           0
</event>
<event>
      5   9999  3.79277E-02  3.94333E+01 -1.00000E+00  1.45226E-01
      21    -1     0     0   511   501  0.000000000E+00  0.000000000E+00  1.925413142E+02  1.925413142E+02  0.000000000E+00  0.00000E+00  9.000E+00
      21    -1     0     0   501   502  0.000000000E+00  0.000000000E+00 -2.250237895E+02  2.250237895E+02  0.000000000E+00  0.00000E+00  9.000E+00
      25     1     1     2     0     0 -1.075120859E+00  9.275081212E+01 -1.406504475E+02  2.097889831E+02  1.250000000E+02  0.00000E+00  9.000E+00
      25     1     1     2     0     0 -1.375318513E+01 -5.621171598E+01  8.832934204E+01  1.636336756E+02  1.250000000E+02  0.00000E+00  9.000E+00
      21     1     1     2   511   502  1.482830599E+01 -3.653909613E+01  1.983863026E+01  4.414244506E+01  9.233911863E-07  0.00000E+00  9.000E+00
#rwgt            1           1   3.7565975200453308E-002           8      382321           0
</event>
<event>
      5   9999  3.79277E-02  1.85449E+02 -1.00000E+00  1.12855E-01
      21    -1     0     0   502   512  0.000000000E+00  0.000000000E+00  1.443648901E+03  1.443648901E+03  0.000000000E+00  0.00000E+00  9.000E+00
      21    -1     0     0   501   502  0.000000000E+00  0.000000000E+00 -1.343947893E+02  1.343947893E+02  0.000000000E+00  0.00000E+00  9.000E+00
      25     1     1     2     0     0  1.019686955E+02 -2.214192496E+02  7.809380509E+01  2.848644262E+02  1.250000000E+02  0.00000E+00  9.000E+00
      25     1     1     2     0     0 -8.158556774E+01  3.709346188E+01  2.416933424E+02  2.864835101E+02  1.250000000E+02  0.00000E+00  9.000E+00
      21     1     1     2   501   512 -2.038312772E+01  1.843257877E+02  9.894669640E+02  1.006695754E+03  1.525878906E-05  0.00000E+00  9.000E+00
#rwgt            2          11   1.0448567536025829E-003           8      382468           0
</event>
<event>
      5   9999  3.79277E-02  6.55743E+01 -1.00000E+00  1.32673E-01
      21    -1     0     0   502   501  0.000000000E+00  0.000000000E+00  2.421741694E+02  2.421741694E+02  0.000000000E+00  0.00000E+00  9.000E+00
       2    -1     0     0   501     0  0.000000000E+00  0.000000000E+00 -5.742478903E+02  5.742478903E+02  0.000000000E+00  0.00000E+00  9.000E+00
      25     1     1     2     0     0 -1.235183449E+02  7.989270461E+01 -2.270821862E+02  2.980452064E+02  1.250000000E+02  0.00000E+00  9.000E+00
      25     1     1     2     0     0  1.890925159E+02 -7.977918777E+01  1.308289379E+02  2.736090447E+02  1.250000000E+02  0.00000E+00  9.000E+00
       2     1     1     2   502     0 -6.557417102E+01 -1.135168415E-01 -2.358204726E+02  2.447678085E+02  2.697398305E-06  0.00000E+00  9.000E+00
#rwgt            1           1   3.7868387482396196E-002           8      382563           0
</event>
<event>
      5   9999  3.79277E-02  3.63372E+01 -1.00000E+00  1.47475E-01
      21    -1     0     0   511   501  0.000000000E+00  0.000000000E+00  2.102500254E+02  2.102500254E+02  0.000000000E+00  0.00000E+00  9.000E+00
      21    -1     0     0   501   502  0.000000000E+00  0.000000000E+00 -1.008690011E+03  1.008690011E+03  0.000000000E+00  0.00000E+00  9.000E+00
      25     1     1     2     0     0 -7.896563945E+01 -1.172894998E+02 -6.573418944E+02  6.838974814E+02  1.250000000E+02  0.00000E+00  9.000E+00
      25     1     1     2     0     0  1.132258915E+02  1.051806231E+02 -3.067135087E+02  3.654876775E+02  1.250000000E+02  0.00000E+00  9.000E+00
      21     1     1     2   511   502 -3.426025200E+01  1.210887671E+01  1.656154178E+02  1.695548772E+02  2.697398305E-06  0.00000E+00  9.000E+00
#rwgt            1           1   4.4247129868508601E-002           8      382656           0
</event>
<event>
      5   9999  3.79277E-02  5.46670E+01 -1.00000E+00  1.36900E-01
       2    -1     0     0   502     0  0.000000000E+00  0.000000000E+00  3.092633206E+03  3.092633206E+03  0.000000000E+00  0.00000E+00  9.000E+00
      21    -1     0     0   501   502  0.000000000E+00  0.000000000E+00 -2.818703387E+01  2.818703387E+01  0.000000000E+00  0.00000E+00  9.000E+00
      25     1     1     2     0     0 -7.430824430E+01 -9.410792769E+01  7.001694302E+02  7.212768180E+02  1.250000000E+02  0.00000E+00  9.000E+00
      25     1     1     2     0     0  1.176197223E+02  6.075229732E+01  4.634663327E+02  4.979470677E+02  1.250000000E+02  0.00000E+00  9.000E+00
       2     1     1     2   501     0 -4.331147800E+01  3.335563037E+01  1.900810409E+03  1.901596354E+03  3.051757812E-05  0.00000E+00  9.000E+00
#rwgt            1           1   4.3109556879442672E-002           8      382813           0
</event>
<event>
      5   9999  3.79277E-02  9.02219E+01 -1.00000E+00  1.25872E-01
      21    -1     0     0   511   501  0.000000000E+00  0.000000000E+00  9.005514892E+02  9.005514892E+02  0.000000000E+00  0.00000E+00  9.000E+00
      21    -1     0     0   501   502  0.000000000E+00  0.000000000E+00 -1.018557843E+02  1.018557843E+02  0.000000000E+00  0.00000E+00  9.000E+00
      25     1     1     2     0     0 -1.252367853E+02  1.558743174E+02  5.661059963E+02  6.132552929E+02  1.250000000E+02  0.00000E+00  9.000E+00
      25     1     1     2     0     0  6.668494817E+01 -8.723275116E+01  3.230567143E+01  1.694847828E+02  1.250000000E+02  0.00000E+00  9.000E+00
      21     1     1     2   511   502  5.855183716E+01 -6.864156621E+01  2.002840371E+02  2.196671978E+02  3.814697266E-06  0.00000E+00  9.000E+00
#rwgt            1           1   3.3007240321166746E-002           8      382904           0
</event>
<event>
      5   9999  3.79277E-02  1.87464E+01 -1.00000E+00  1.68722E-01
      21    -1     0     0   502   501  0.000000000E+00  0.000000000E+00  4.742165405E+02  4.742165405E+02  0.000000000E+00  0.00000E+00  9.000E+00
      21    -1     0     0   512   502  0.000000000E+00  0.000000000E+00 -2.641147736E+02  2.641147736E+02  0.000000000E+00  0.00000E+00  9.000E+00
      25     1     1     2     0     0 -1.854573029E+02  1.398535987E+02  4.346887233E+00  2.638130697E+02  1.250000000E+02  0.00000E+00  9.000E+00
      25     1     1     2     0     0  1.856186884E+02 -1.585993505E+02  2.835452663E+02  3.945009119E+02  1.250000000E+02  0.00000E+00  9.000E+00
      21     1     1     2   512   501 -1.613854283E-01  1.874575173E+01 -7.779038664E+01  8.001733254E+01  1.348699152E-06  0.00000E+00  9.000E+00
#rwgt            1           1   4.1136232598736874E-002           8      382990           0
</event>
<event>
      5   9999  3.79277E-02  1.17761E+01 -1.00000E+00  1.87892E-01
      21    -1     0     0   511   501  0.000000000E+00  0.000000000E+00  1.927754145E+02  1.927754145E+02  0.000000000E+00  0.00000E+00  9.000E+00
      21    -1     0     0   501   502  0.000000000E+00  0.000000000E+00 -2.509663405E+02  2.509663405E+02  0.000000000E+00  0.00000E+00  9.000E+00
      25     1     1     2     0     0 -8.761791694E+01  1.491817993E+02  6.392089040E-01  2.134420699E+02  1.250000000E+02  0.00000E+00  9.000E+00
      25     1     1     2     0     0  8.978503423E+01 -1.376068556E+02 -6.571649167E+01  2.166579248E+02  1.250000000E+02  0.00000E+00  9.000E+00
      21     1     1     2   511   502 -2.167117286E+00 -1.157494364E+01  6.886356785E+00  1.364176042E+01  2.920019320E-07  0.00000E+00  9.000E+00
#rwgt            1           1   3.9858494212288376E-002           8      383263           0
</event>
<event>
      5   9999  3.79277E-02  1.00701E+02 -1.00000E+00  1.23692E-01
      21    -1     0     0   502   501  0.000000000E+00  0.000000000E+00  1.052672726E+02  1.052672726E+02  0.000000000E+00  0.00000E+00  9.000E+00
      21    -1     0     0   501   512  0.000000000E+00  0.000000000E+00 -6.321669119E+02  6.321669119E+02  0.000000000E+00  0.00000E+00  9.000E+00
      25     1     1     2     0     0  1.502111806E+02 -7.577369876E+01 -1.379662658E+02  2.509277639E+02  1.250000000E+02  0.00000E+00  9.000E+00
      25     1     1     2     0     0 -4.950985668E+01  7.585530924E+01 -1.088987280E+02  1.889158194E+02  1.250000000E+02  0.00000E+00  9.000E+00
      21     1     1     2   502   512 -1.007013239E+02 -8.161048454E-02 -2.800346455E+02  2.975906013E+02  3.814697266E-06  0.00000E+00  9.000E+00
#rwgt            1           1   4.1236542816740121E-002           8      383568           0
</event>
<event>
      5   9999  3.79277E-02  1.47444E+02 -1.00000E+00  1.16690E-01
      21    -1     0     0   511   501  0.000000000E+00  0.000000000E+00  7.282390571E+02  7.282390571E+02  0.000000000E+00  0.00000E+00  9.000E+00
      21    -1     0     0   501   502  0.000000000E+00  0.000000000E+00 -1.673804870E+03  1.673804870E+03  0.000000000E+00  0.00000E+00  9.000E+00
      25     1     1     2     0     0 -5.189790510E+02  4.158039640E+02  3.050476457E+02  7.422339644E+02  1.250000000E+02  0.00000E+00  9.000E+00
      25     1     1     2     0     0  6.238495544E+02 -5.194473338E+02 -1.268586477E+03  1.511274445E+03  1.250000000E+02  0.00000E+00  9.000E+00
      21     1     1     2   511   502 -1.048705034E+02  1.036433698E+02  1.797301825E+01  1.485355176E+02  1.966049969E-06  0.00000E+00  9.000E+00
#rwgt            1           1   2.9072534519494235E-003           8      383626           0
</event>
<event>
      5   9999  3.79277E-02  1.36724E+02 -1.00000E+00  1.18011E-01
      21    -1     0     0   512   501  0.000000000E+00  0.000000000E+00  9.330660319E+02  9.330660319E+02  0.000000000E+00  0.00000E+00  9.000E+00
      21    -1     0     0   501   502  0.000000000E+00  0.000000000E+00 -7.575938104E+01  7.575938104E+01  0.000000000E+00  0.00000E+00  9.000E+00
      25     1     1     2     0     0 -8.971714277E+01  1.131899014E+02  1.754595202E+02  2.593687775E+02  1.250000000E+02  0.00000E+00  9.000E+00
      25     1     1     2     0     0  6.873993619E+01  2.191524746E+01  1.878766533E+02  2.369136842E+02  1.250000000E+02  0.00000E+00  9.000E+00
      21     1     1     2   512   502  2.097720658E+01 -1.351051488E+02  4.939704774E+02  5.125429514E+02  5.394796609E-06  0.00000E+00  9.000E+00
#rwgt            1           1   3.2207645322254834E-002           8      383777           0
</event>
<event>
      5   9999  3.79277E-02  1.04191E+02 -1.00000E+00  1.23031E-01
      21    -1     0     0   511   501  0.000000000E+00  0.000000000E+00  1.408423418E+02  1.408423418E+02  0.000000000E+00  0.00000E+00  9.000E+00
      21    -1     0     0   501   502  0.000000000E+00  0.000000000E+00 -4.354028234E+02  4.354028234E+02  0.000000000E+00  0.00000E+00  9.000E+00
      25     1     1     2     0     0  3.288252219E+00 -6.313686276E+01 -2.937634286E+02  3.254520364E+02  1.250000000E+02  0.00000E+00  9.000E+00
      25     1     1     2     0     0  7.375905302E+01 -7.002599621E+00  1.207879689E+01  1.458092303E+02  1.250000000E+02  0.00000E+00  9.000E+00
      21     1     1     2   511   502 -7.704730524E+01  7.013946238E+01 -1.287584992E+01  1.049838985E+02  1.922192037E-06  0.00000E+00  9.000E+00
#rwgt            1           1   4.4146192687088970E-002           8      383824           0
</event>
<event>
      5   9999  3.79277E-02  1.28947E+02 -1.00000E+00  1.19057E-01
      21    -1     0     0   502   501  0.000000000E+00  0.000000000E+00  1.153603515E+03  1.153603515E+03  0.000000000E+00  0.00000E+00  9.000E+00
      21    -1     0     0   512   502  0.000000000E+00  0.000000000E+00 -9.889289910E+01  9.889289910E+01  0.000000000E+00  0.00000E+00  9.000E+00
      25     1     1     2     0     0  2.465875131E+02 -5.290506453E+01  2.516541171E+02  3.775700493E+02  1.250000000E+02  0.00000E+00  9.000E+00
      25     1     1     2     0     0 -1.176564166E+02  5.089537328E+01  6.528794964E+02  6.769859734E+02  1.250000000E+02  0.00000E+00  9.000E+00
      21     1     1     2   512   501 -1.289310965E+02  2.009691256E+00  1.501770027E+02  1.979403916E+02  1.907348633E-06  0.00000E+00  9.000E+00
#rwgt            1           1   4.4141747736959419E-002           8      383950           0
</event>
<event>
      5   9999  3.79277E-02  3.50843E+01 -1.00000E+00  1.48463E-01
      21    -1     0     0   502   501  0.000000000E+00  0.000000000E+00  3.055144352E+01  3.055144352E+01  0.000000000E+00  0.00000E+00  9.000E+00
      21    -1     0     0   501   511  0.000000000E+00  0.000000000E+00 -2.099712598E+03  2.099712598E+03  0.000000000E+00  0.00000E+00  9.000E+00
      25     1     1     2     0     0  9.942579838E+01 -1.231251711E+02 -1.559822341E+03  1.572805148E+03  1.250000000E+02  0.00000E+00  9.000E+00
      25     1     1     2     0     0 -6.597239868E+01  1.125526181E+02 -3.453494367E+02  3.897584927E+02  1.250000000E+02  0.00000E+00  9.000E+00
      21     1     1     2   502   511 -3.345339970E+01  1.057255303E+01 -1.639893774E+02  1.677004017E+02  1.907348633E-06  0.00000E+00  9.000E+00
#rwgt            1           1  0.12247427881113244                8      384174           0
</event>
<event>
      5   9999  3.79277E-02  4.29450E+01 -1.00000E+00  1.42952E-01
      21    -1     0     0   502   501  0.000000000E+00  0.000000000E+00  5.394503105E+02  5.394503105E+02  0.000000000E+00  0.00000E+00  9.000E+00
      -1    -1     0     0     0   502  0.000000000E+00  0.000000000E+00 -3.034137936E+02  3.034137936E+02  0.000000000E+00  0.00000E+00  9.000E+00
      25     1     1     2     0     0 -2.285223216E+02 -5.095455537E+01  9.226614450E+01  2.809926326E+02  1.250000000E+02  0.00000E+00  9.000E+00
      25     1     1     2     0     0  2.114400287E+02  1.155316116E+01  3.068566918E+02  3.932256230E+02  1.250000000E+02  0.00000E+00  9.000E+00
      -1     1     1     2     0   501  1.708229287E+01  3.940139422E+01 -1.630863195E+02  1.686458485E+02  0.000000000E+00  0.00000E+00  9.000E+00
#rwgt            1           1   4.8615821692139245E-002           8      384360           0
</event>
<event>
      5   9999  3.79277E-02  3.60177E+01 -1.00000E+00  1.47722E-01
      21    -1     0     0   511   501  0.000000000E+00  0.000000000E+00  8.166481419E+01  8.166481419E+01  0.000000000E+00  0.00000E+00  9.000E+00
      21    -1     0     0   501   502  0.000000000E+00  0.000000000E+00 -3.988310649E+02  3.988310649E+02  0.000000000E+00  0.00000E+00  9.000E+00
      25     1     1     2     0     0 -1.696208452E+01  5.390496713E+01 -3.063057519E+01  1.405584929E+02  1.250000000E+02  0.00000E+00  9.000E+00
      25     1     1     2     0     0  1.482056215E+01 -1.795099571E+01 -2.735395034E+02  3.016467259E+02  1.250000000E+02  0.00000E+00  9.000E+00
      21     1     1     2   511   502  2.141522374E+00 -3.595397141E+01 -1.299617214E+01  3.829066033E+01  0.000000000E+00  0.00000E+00  9.000E+00
#rwgt            1           1   4.4173777135414941E-002           8      384447           0
</event>
<event>
      5   9999  3.79277E-02  9.16718E+01 -1.00000E+00  1.25551E-01
      21    -1     0     0   502   501  0.000000000E+00  0.000000000E+00  1.813073185E+02  1.813073185E+02  0.000000000E+00  0.00000E+00  9.000E+00
      21    -1     0     0   501   512  0.000000000E+00  0.000000000E+00 -4.983105006E+02  4.983105006E+02  0.000000000E+00  0.00000E+00  9.000E+00
      25     1     1     2     0     0 -1.174755791E+02  5.214662476E+01  6.774337908E+01  1.916610226E+02  1.250000000E+02  0.00000E+00  9.000E+00
      25     1     1     2     0     0  9.002209194E+01 -1.396110346E+02 -2.530805206E+02  3.275209427E+02  1.250000000E+02  0.00000E+00  9.000E+00
      21     1     1     2   502   512  2.745348717E+01  8.746440981E+01 -1.316660406E+02  1.604358538E+02  1.907348633E-06  0.00000E+00  9.000E+00
#rwgt            1           1   4.1094407732996246E-002           8      384759           0
</event>
<event>
      5   9999  3.79277E-02  1.22403E+02 -1.00000E+00  1.20004E-01
      21    -1     0     0   511   501  0.000000000E+00  0.000000000E+00  8.501854802E+01  8.501854802E+01  0.000000000E+00  0.00000E+00  9.000E+00
      21    -1     0     0   501   502  0.000000000E+00  0.000000000E+00 -1.613572278E+03  1.613572278E+03  0.000000000E+00  0.00000E+00  9.000E+00
      25     1     1     2     0     0 -1.175339865E+02  7.578881851E+01 -1.257727931E+03  1.271637814E+03  1.250000000E+02  0.00000E+00  9.000E+00
      25     1     1     2     0     0  2.893459169E+01 -1.602432379E+02 -1.939438907E+02  2.824081065E+02  1.250000000E+02  0.00000E+00  9.000E+00
      21     1     1     2   511   502  8.859939481E+01  8.445441934E+01 -7.688190806E+01  1.445449048E+02  3.814697266E-06  0.00000E+00  9.000E+00
#rwgt            1           1   2.9850763043718670E-002           8      384852           0
</event>
<event>
      5   9999  3.79277E-02  2.80008E+01 -1.00000E+00  1.55150E-01
      21    -1     0     0   512   501  0.000000000E+00  0.000000000E+00  1.156227174E+02  1.156227174E+02  0.000000000E+00  0.00000E+00  9.000E+00
      21    -1     0     0   501   502  0.000000000E+00  0.000000000E+00 -4.000720197E+02  4.000720197E+02  0.000000000E+00  0.00000E+00  9.000E+00
      25     1     1     2     0     0  5.187090126E+01 -1.473241441E+02 -2.173653348E+02  2.954110400E+02  1.250000000E+02  0.00000E+00  9.000E+00
      25     1     1     2     0     0 -3.266663524E+01  1.269466168E+02 -5.183381121E+01  1.883993009E+02  1.250000000E+02  0.00000E+00  9.000E+00
      21     1     1     2   512   502 -1.920426602E+01  2.037752724E+01 -1.525015633E+01  3.188439615E+01  4.768371582E-07  0.00000E+00  9.000E+00
#rwgt            1           1   4.4357363904543756E-002           8      385147           0
</event>
<event>
      5   9999  3.79277E-02  2.60049E+01 -1.00000E+00  1.57480E-01
      21    -1     0     0   511   501  0.000000000E+00  0.000000000E+00  8.222150391E+02  8.222150391E+02  0.000000000E+00  0.00000E+00  9.000E+00
      21    -1     0     0   501   502  0.000000000E+00  0.000000000E+00 -2.312873515E+02  2.312873515E+02  0.000000000E+00  0.00000E+00  9.000E+00
      25     1     1     2     0     0  1.945150226E+02  1.430617972E+01  3.014084940E+01  2.336112831E+02  1.250000000E+02  0.00000E+00  9.000E+00
      25     1     1     2     0     0 -1.874542540E+02  1.072177525E+01 -3.086701038E+01  2.276660408E+02  1.250000000E+02  0.00000E+00  9.000E+00
      21     1     1     2   511   502 -7.060768599E+00 -2.502795496E+01  5.916538486E+02  5.922250667E+02  0.000000000E+00  0.00000E+00  9.000E+00
#rwgt            1           1   3.8388200267312114E-002           8      385296           0
</event>
<event>
      5   9999 -3.79277E-02  1.99167E+01 -1.00000E+00  1.66519E-01
      21    -1     0     0   502   501  0.000000000E+00  0.000000000E+00  7.888795943E+01  7.888795943E+01  0.000000000E+00  0.00000E+00  9.000E+00
      21    -1     0     0   501   512  0.000000000E+00  0.000000000E+00 -5.755412462E+02  5.755412462E+02  0.000000000E+00  0.00000E+00  9.000E+00
      25     1     1     2     0     0 -1.026581901E+02  1.102948695E+02 -2.274505184E+02  3.001039829E+02  1.250000000E+02  0.00000E+00  9.000E+00
      25     1     1     2     0     0  1.225691594E+02 -1.107726097E+02 -2.250375515E+02  3.058768862E+02  1.250000000E+02  0.00000E+00  9.000E+00
      21     1     1     2   502   512 -1.991096933E+01  4.777402016E-01 -4.416521679E+01  4.844833650E+01  8.259061849E-07  0.00000E+00  9.000E+00
#rwgt            1           1 -0.31715540399935449                8      385680           0
</event>
<event>
      5   9999  3.79277E-02  4.18850E+01 -1.00000E+00  1.43611E-01
      21    -1     0     0   511   501  0.000000000E+00  0.000000000E+00  3.462249126E+02  3.462249126E+02  0.000000000E+00  0.00000E+00  9.000E+00
      21    -1     0     0   501   502  0.000000000E+00  0.000000000E+00 -3.169369439E+02  3.169369439E+02  0.000000000E+00  0.00000E+00  9.000E+00
      25     1     1     2     0     0 -1.645075783E+02 -1.604437029E+02 -8.309182292E+01  2.744707200E+02  1.250000000E+02  0.00000E+00  9.000E+00
      25     1     1     2     0     0  1.471542007E+02  1.223226987E+02 -3.878323061E+01  2.318325697E+02  1.250000000E+02  0.00000E+00  9.000E+00
      21     1     1     2   511   502  1.735337761E+01  3.812100419E+01  1.511630222E+02  1.568585667E+02  1.907348633E-06  0.00000E+00  9.000E+00
#rwgt            1           1   1.5801853571179626E-002           8      385986           0
</event>
<event>
      5   9999  3.79277E-02  3.16666E+01 -1.00000E+00  1.51427E-01
       4    -1     0     0   502     0  0.000000000E+00  0.000000000E+00  7.277962604E+01  7.277962604E+01  0.000000000E+00  0.00000E+00  9.000E+00
      21    -1     0     0   501   502  0.000000000E+00  0.000000000E+00 -6.953497956E+02  6.953497956E+02  0.000000000E+00  0.00000E+00  9.000E+00
      25     1     1     2     0     0 -8.679295404E+01  3.487167431E+01 -4.677556772E+02  4.931221188E+02  1.250000000E+02  0.00000E+00  9.000E+00
      25     1     1     2     0     0  1.109418024E+02 -1.438741533E+01 -1.709148936E+02  2.394827386E+02  1.250000000E+02  0.00000E+00  9.000E+00
       4     1     1     2   501     0 -2.414884836E+01 -2.048425898E+01  1.610040122E+01  3.552456421E+01  7.539457465E-07  0.00000E+00  9.000E+00
#rwgt            1           1   5.0197730731707628E-002           8      386157           0
</event>
<event>
      5   9999  3.79277E-02  1.63110E+01 -1.00000E+00  1.74023E-01
      21    -1     0     0   511   501  0.000000000E+00  0.000000000E+00  2.970726276E+02  2.970726276E+02  0.000000000E+00  0.00000E+00  9.000E+00
      21    -1     0     0   501   502  0.000000000E+00  0.000000000E+00 -1.313731478E+02  1.313731478E+02  0.000000000E+00  0.00000E+00  9.000E+00
      25     1     1     2     0     0 -1.135892280E+02 -6.227026997E+01  1.477475511E+01  1.806194691E+02  1.250000000E+02  0.00000E+00  9.000E+00
      25     1     1     2     0     0  9.823065648E+01  5.677824323E+01  1.043103995E+02  1.984406466E+02  1.250000000E+02  0.00000E+00  9.000E+00
      21     1     1     2   511   502  1.535857148E+01  5.492026745E+00  4.661432512E+01  4.938565968E+01  6.743495762E-07  0.00000E+00  9.000E+00
#rwgt            1           1   3.7918228039189747E-002           8      386287           0
</event>
<event>
      5   9999  3.79277E-02  2.39796E+02 -1.00000E+00  1.08852E-01
      21    -1     0     0   502   512  0.000000000E+00  0.000000000E+00  2.477530602E+02  2.477530602E+02  0.000000000E+00  0.00000E+00  9.000E+00
      21    -1     0     0   501   502  0.000000000E+00  0.000000000E+00 -1.320125392E+03  1.320125392E+03  0.000000000E+00  0.00000E+00  9.000E+00
      25     1     1     2     0     0  2.767795047E+02  1.929012582E+02 -3.021627955E+02  4.698352313E+02  1.250000000E+02  0.00000E+00  9.000E+00
      25     1     1     2     0     0 -2.116012640E+02 -4.236689016E+02 -6.880244606E+02  8.445549666E+02  1.250000000E+02  0.00000E+00  9.000E+00
      21     1     1     2   501   512 -6.517824072E+01  2.307676435E+02 -8.218507559E+01  2.534882541E+02  3.814697266E-06  0.00000E+00  9.000E+00
#rwgt            2          11   2.4501878284376110E-003           8      386657           0
</event>
<event>
      5   9999  3.79277E-02  3.27907E+01 -1.00000E+00  1.50404E-01
      21    -1     0     0   502   511  0.000000000E+00  0.000000000E+00  5.453336003E+02  5.453336003E+02  0.000000000E+00  0.00000E+00  9.000E+00
      21    -1     0     0   501   502  0.000000000E+00  0.000000000E+00 -7.523414742E+01  7.523414742E+01  0.000000000E+00  0.00000E+00  9.000E+00
      25     1     1     2     0     0  1.162091285E+02  7.275427180E+01  3.187877123E+02  3.688473277E+02  1.250000000E+02  0.00000E+00  9.000E+00
      25     1     1     2     0     0 -8.994160163E+01 -5.312650085E+01  1.010165057E+02  1.916800752E+02  1.250000000E+02  0.00000E+00  9.000E+00
      21     1     1     2   501   511 -2.626752686E+01 -1.962777094E+01  5.029523485E+01  6.004034484E+01  6.743495762E-07  0.00000E+00  9.000E+00
#rwgt            1           1   3.8688234343183699E-002           8      386752           0
</event>
<event>
      5   9999  3.79277E-02  9.34438E+01 -1.00000E+00  1.25167E-01
      21    -1     0     0   512   501  0.000000000E+00  0.000000000E+00  2.109586453E+02  2.109586453E+02  0.000000000E+00  0.00000E+00  9.000E+00
      21    -1     0     0   501   502  0.000000000E+00  0.000000000E+00 -7.938641627E+02  7.938641627E+02  0.000000000E+00  0.00000E+00  9.000E+00
      25     1     1     2     0     0 -3.344222636E+01 -2.275085078E+02 -2.566602441E+02  3.665760283E+02  1.250000000E+02  0.00000E+00  9.000E+00
      25     1     1     2     0     0  1.141672672E+02  1.804424728E+02 -4.315579071E+02  4.974543980E+02  1.250000000E+02  0.00000E+00  9.000E+00
      21     1     1     2   512   502 -8.072504087E+01  4.706603506E+01  1.053126339E+02  1.407923817E+02  1.348699152E-06  0.00000E+00  9.000E+00
#rwgt            1           1   4.6508980094985233E-002           8      386853           0
</event>
<event>
      5   9999  3.79277E-02  4.62904E+01 -1.00000E+00  1.41013E-01
      21    -1     0     0   502   501  0.000000000E+00  0.000000000E+00  2.744170506E+01  2.744170506E+01  0.000000000E+00  0.00000E+00  9.000E+00
       1    -1     0     0   501     0  0.000000000E+00  0.000000000E+00 -3.213536606E+03  3.213536606E+03  0.000000000E+00  0.00000E+00  9.000E+00
      25     1     1     2     0     0  3.447241834E+01 -1.103203571E+02 -1.165213368E+03  1.177584868E+03  1.250000000E+02  0.00000E+00  9.000E+00
      25     1     1     2     0     0 -8.070438419E+01  1.126451969E+02 -3.951382843E+02  4.369913063E+02  1.250000000E+02  0.00000E+00  9.000E+00
       1     1     1     2   502     0  4.623196584E+01 -2.324839826E+00 -1.625743248E+03  1.626402136E+03  3.051757812E-05  0.00000E+00  9.000E+00
#rwgt            1           1   3.4695719360331612E-002           8      387114           0
</event>
<event>
      5   9999  3.79277E-02  6.48039E+01 -1.00000E+00  1.32940E-01
      21    -1     0     0   502   501  0.000000000E+00  0.000000000E+00  2.317979344E+02  2.317979344E+02  0.000000000E+00  0.00000E+00  9.000E+00
      21    -1     0     0   511   502  0.000000000E+00  0.000000000E+00 -3.326709635E+02  3.326709635E+02  0.000000000E+00  0.00000E+00  9.000E+00
      25     1     1     2     0     0 -9.548470607E+01 -5.825101682E+01  5.652308830E+01  1.770038688E+02  1.250000000E+02  0.00000E+00  9.000E+00
      25     1     1     2     0     0  1.338982681E+02  6.059620389E+00  3.310530588E+01  1.862429233E+02  1.250000000E+02  0.00000E+00  9.000E+00
      21     1     1     2   511   501 -3.841356203E+01  5.219139643E+01 -1.905014233E+02  2.012221059E+02  2.697398305E-06  0.00000E+00  9.000E+00
#rwgt            1           1   4.6903438803564200E-002           8      387329           0
</event>
<event>
      5   9999  3.79277E-02  1.40724E+02 -1.00000E+00  1.17503E-01
       1    -1     0     0   502     0  0.000000000E+00  0.000000000E+00  5.501918139E+02  5.501918139E+02  0.000000000E+00  0.00000E+00  9.000E+00
      21    -1     0     0   501   502  0.000000000E+00  0.000000000E+00 -1.872990647E+02  1.872990647E+02  0.000000000E+00  0.00000E+00  9.000E+00
      25     1     1     2     0     0 -5.118927498E+01  1.080294943E+02 -4.961648743E+01  1.799375151E+02  1.250000000E+02  0.00000E+00  9.000E+00
      25     1     1     2     0     0 -8.192681525E+01 -1.536744119E+02  1.564952781E+02  2.654121324E+02  1.250000000E+02  0.00000E+00  9.000E+00
       1     1     1     2   501     0  1.331160902E+02  4.564491761E+01  2.560139585E+02  2.921412311E+02  0.000000000E+00  0.00000E+00  9.000E+00
#rwgt            1           1   5.2182307098130799E-002           8      387467           0
</event>
<event>
      5   9999  3.79277E-02  3.30410E+01 -1.00000E+00  1.50183E-01
      21    -1     0     0   511   501  0.000000000E+00  0.000000000E+00  9.837070058E+01  9.837070058E+01  0.000000000E+00  0.00000E+00  9.000E+00
      21    -1     0     0   501   502  0.000000000E+00  0.000000000E+00 -4.688929018E+02  4.688929018E+02  0.000000000E+00  0.00000E+00  9.000E+00
      25     1     1     2     0     0 -7.352817184E+01  1.185176290E+02 -9.650440444E+01  2.106915293E+02  1.250000000E+02  0.00000E+00  9.000E+00
      25     1     1     2     0     0  1.036687495E+02 -1.049804035E+02 -2.482203033E+02  3.146528464E+02  1.250000000E+02  0.00000E+00  9.000E+00
      21     1     1     2   511   502 -3.014057768E+01 -1.353722557E+01 -2.579749347E+01  4.191922672E+01  0.000000000E+00  0.00000E+00  9.000E+00
#rwgt            1           1   2.5297123858720520E-002           8      387529           0
</event>
<event>
      5   9999  3.79277E-02  1.87954E+01 -1.00000E+00  1.68626E-01
      21    -1     0     0   502   501  0.000000000E+00  0.000000000E+00  2.004466161E+02  2.004466161E+02  0.000000000E+00  0.00000E+00  9.000E+00
      21    -1     0     0   501   512  0.000000000E+00  0.000000000E+00 -4.192806922E+02  4.192806922E+02  0.000000000E+00  0.00000E+00  9.000E+00
      25     1     1     2     0     0  1.566930747E+02 -1.482575790E+02 -1.783330151E+02  3.065300861E+02  1.250000000E+02  0.00000E+00  9.000E+00
      25     1     1     2     0     0 -1.754113997E+02  1.499578154E+02  6.546212388E+00  2.625344900E+02  1.250000000E+02  0.00000E+00  9.000E+00
      21     1     1     2   502   512  1.871832500E+01 -1.700236456E+00 -4.704727342E+01  5.066273217E+01  6.743495762E-07  0.00000E+00  9.000E+00
#rwgt            1           1   7.0923385629687613E-002           8      387697           0
</event>
<event>
      5   9999  3.79277E-02  9.85181E+00 -1.00000E+00  1.96510E-01
      21    -1     0     0   502   501  0.000000000E+00  0.000000000E+00  2.531123368E+02  2.531123368E+02  0.000000000E+00  0.00000E+00  9.000E+00
       2    -1     0     0   501     0  0.000000000E+00  0.000000000E+00 -1.890532744E+03  1.890532744E+03  0.000000000E+00  0.00000E+00  9.000E+00
      25     1     1     2     0     0  1.413862791E+02 -8.532730713E+01 -1.807338152E+01  2.079001597E+02  1.250000000E+02  0.00000E+00  9.000E+00
      25     1     1     2     0     0 -1.330535826E+02  8.007142295E+01  9.537900080E+01  2.209905935E+02  1.250000000E+02  0.00000E+00  9.000E+00
       2     1     1     2   502     0 -8.332696485E+00  5.255884173E+00 -1.714726026E+03  1.714754327E+03  3.737624730E-05  0.00000E+00  9.000E+00
#rwgt            1           1   3.4625349193294692E-002           8      387848           0
</event>
<event>
      5   9999  3.79277E-02  3.72314E+01 -1.00000E+00  1.46799E-01
      21    -1     0     0   502   501  0.000000000E+00  0.000000000E+00  1.914250200E+03  1.914250200E+03  0.000000000E+00  0.00000E+00  9.000E+00
      21    -1     0     0   501   511  0.000000000E+00  0.000000000E+00 -3.203698205E+01  3.203698205E+01  0.000000000E+00  0.00000E+00  9.000E+00
      25     1     1     2     0     0 -3.565109351E+01 -3.880865224E+00  1.416867325E+02  1.923179444E+02  1.250000000E+02  0.00000E+00  9.000E+00
      25     1     1     2     0     0  6.416222131E+01 -2.006265998E+01  1.649894135E+03  1.655987608E+03  1.250000000E+02  0.00000E+00  9.000E+00
      21     1     1     2   502   511 -2.851112779E+01  2.394352520E+01  9.063235050E+01  9.798162973E+01  0.000000000E+00  0.00000E+00  9.000E+00
#rwgt            2          11   2.6444837238036008E-003           8      388077           0
</event>
<event>
      5   9999  3.79277E-02  1.18614E+02 -1.00000E+00  1.20583E-01
      21    -1     0     0   502   512  0.000000000E+00  0.000000000E+00  1.266218516E+03  1.266218516E+03  0.000000000E+00  0.00000E+00  9.000E+00
      21    -1     0     0   501   502  0.000000000E+00  0.000000000E+00 -2.976740380E+02  2.976740380E+02  0.000000000E+00  0.00000E+00  9.000E+00
      25     1     1     2     0     0 -3.422134678E+02 -6.032243030E+01  8.528593524E+01  3.790086330E+02  1.250000000E+02  0.00000E+00  9.000E+00
      25     1     1     2     0     0  3.455507735E+02  1.788889946E+02  1.396812800E+02  4.319056256E+02  1.250000000E+02  0.00000E+00  9.000E+00
      21     1     1     2   501   512 -3.337305684E+00 -1.185665643E+02  7.435772628E+02  7.529782956E+02  1.525878906E-05  0.00000E+00  9.000E+00
#rwgt            1           1   5.3608536761630993E-002           8      388142           0
</event>
<event>
      5   9999  3.79277E-02  2.20204E+01 -1.00000E+00  1.62993E-01
      21    -1     0     0   502   501  0.000000000E+00  0.000000000E+00  3.324171269E+03  3.324171269E+03  0.000000000E+00  0.00000E+00  9.000E+00
      21    -1     0     0   511   502  0.000000000E+00  0.000000000E+00 -1.798810248E+01  1.798810248E+01  0.000000000E+00  0.00000E+00  9.000E+00
      25     1     1     2     0     0  9.989389355E+01 -9.612435438E+01  1.124191546E+03  1.139583395E+03  1.250000000E+02  0.00000E+00  9.000E+00
      25     1     1     2     0     0 -7.916855315E+01  1.035646445E+02  2.169998818E+03  2.177501588E+03  1.250000000E+02  0.00000E+00  9.000E+00
      21     1     1     2   511   501 -2.072534040E+01 -7.440290171E+00  1.199280222E+01  2.507438848E+01  1.668930054E-06  0.00000E+00  9.000E+00
#rwgt            1           1   2.5252205606577458E-002           8      388278           0
</event>
<event>
      5   9999  3.79277E-02  2.32263E+01 -1.00000E+00  1.61183E-01
      21    -1     0     0   512   501  0.000000000E+00  0.000000000E+00  3.712726294E+02  3.712726294E+02  0.000000000E+00  0.00000E+00  9.000E+00
      21    -1     0     0   501   502  0.000000000E+00  0.000000000E+00 -5.392698587E+02  5.392698587E+02  0.000000000E+00  0.00000E+00  9.000E+00
      25     1     1     2     0     0 -5.085087773E+01  7.241236345E+01 -3.636552454E+02  3.945877591E+02  1.250000000E+02  0.00000E+00  9.000E+00
      25     1     1     2     0     0  4.450344694E+01 -9.475451085E+01 -1.181086090E+02  2.013296244E+02  1.250000000E+02  0.00000E+00  9.000E+00
      21     1     1     2   512   502  6.347430796E+00  2.234214740E+01  3.137666251E+02  3.146251046E+02  0.000000000E+00  0.00000E+00  9.000E+00
#rwgt            1           1   4.7431588167124214E-002           8      388488           0
</event>
<event>
      5   9999  3.79277E-02  1.16573E+01 -1.00000E+00  1.88361E-01
      21    -1     0     0   502   511  0.000000000E+00  0.000000000E+00  5.768148149E+01  5.768148149E+01  0.000000000E+00  0.00000E+00  9.000E+00
      21    -1     0     0   501   502  0.000000000E+00  0.000000000E+00 -7.997797630E+02  7.997797630E+02  0.000000000E+00  0.00000E+00  9.000E+00
      25     1     1     2     0     0  4.589786297E+01 -1.101034574E+02 -1.508857024E+02  2.293924156E+02  1.250000000E+02  0.00000E+00  9.000E+00
      25     1     1     2     0     0 -4.893193712E+01  9.884787545E+01 -5.932567899E+02  6.162336048E+02  1.250000000E+02  0.00000E+00  9.000E+00
      21     1     1     2   501   511  3.034074144E+00  1.125558193E+01  2.044210799E+00  1.183522405E+01  7.884953353E-08  0.00000E+00  9.000E+00
#rwgt            1           1   3.8815535958013403E-002           8      388660           0
</event>
<event>
      5   9999  3.79277E-02  3.04363E+01 -1.00000E+00  1.52606E-01
      21    -1     0     0   502   501  0.000000000E+00  0.000000000E+00  1.716207141E+03  1.716207141E+03  0.000000000E+00  0.00000E+00  9.000E+00
      21    -1     0     0   501   512  0.000000000E+00  0.000000000E+00 -1.137952738E+02  1.137952738E+02  0.000000000E+00  0.00000E+00  9.000E+00
      25     1     1     2     0     0 -3.178286502E+02  1.989332432E+02  1.188049052E+03  1.252068304E+03  1.250000000E+02  0.00000E+00  9.000E+00
      25     1     1     2     0     0  2.874271955E+02 -2.003899476E+02  3.756011139E+02  5.286508494E+02  1.250000000E+02  0.00000E+00  9.000E+00
      21     1     1     2   502   512  3.040145477E+01  1.456704345E+00  3.876170117E+01  4.928326204E+01  6.743495762E-07  0.00000E+00  9.000E+00
#rwgt            1           1   3.6178654652651514E-002           8      388836           0
</event>
<event>
      5   9999 -3.79277E-02  3.19933E+01 -1.00000E+00  1.51124E-01
      21    -1     0     0   511   501  0.000000000E+00  0.000000000E+00  7.863325227E+02  7.863325227E+02  0.000000000E+00  0.00000E+00  9.000E+00
      21    -1     0     0   501   502  0.000000000E+00  0.000000000E+00 -2.162625223E+02  2.162625223E+02  0.000000000E+00  0.00000E+00  9.000E+00
      25     1     1     2     0     0 -3.970023470E+01  1.644050125E+02  6.561769242E+02  6.890560736E+02  1.250000000E+02  0.00000E+00  9.000E+00
      25     1     1     2     0     0  7.147478410E+01 -1.681402124E+02 -1.318926553E+02  2.576828444E+02  1.250000000E+02  0.00000E+00  9.000E+00
      21     1     1     2   511   502 -3.177454940E+01  3.735199918E+00  4.578573151E+01  5.585612695E+01  9.536743164E-07  0.00000E+00  9.000E+00
#rwgt            1           1  -6.8818962497466385E-002           8      389032           0
</event>
<event>
      5   9999  3.79277E-02  1.54457E+02 -1.00000E+00  1.15892E-01
      21    -1     0     0   502   501  0.000000000E+00  0.000000000E+00  5.366943268E+01  5.366943268E+01  0.000000000E+00  0.00000E+00  9.000E+00
       1    -1     0     0   501     0  0.000000000E+00  0.000000000E+00 -2.493531817E+03  2.493531817E+03  0.000000000E+00  0.00000E+00  9.000E+00
      25     1     1     2     0     0  2.568010238E+02 -2.539113628E+00 -1.091562176E+03  1.128311215E+03  1.250000000E+02  0.00000E+00  9.000E+00
      25     1     1     2     0     0 -1.909794461E+02  1.422692310E+02 -6.450263331E+02  6.988545295E+02  1.250000000E+02  0.00000E+00  9.000E+00
       1     1     1     2   502     0 -6.582157771E+01 -1.397301174E+02 -7.032738745E+02  7.200355050E+02  0.000000000E+00  0.00000E+00  9.000E+00
#rwgt            1           1   9.0988893096649787E-002           8      389191           0
</event>
<event>
      5   9999  3.79277E-02  6.70289E+01 -1.00000E+00  1.32182E-01
      21    -1     0     0   502   501  0.000000000E+00  0.000000000E+00  2.573981845E+02  2.573981845E+02  0.000000000E+00  0.00000E+00  9.000E+00
      21    -1     0     0   511   502  0.000000000E+00  0.000000000E+00 -2.435937642E+02  2.435937642E+02  0.000000000E+00  0.00000E+00  9.000E+00
      25     1     1     2     0     0  4.665711791E+01  1.270431063E+02  6.242160548E+00  1.843388241E+02  1.250000000E+02  0.00000E+00  9.000E+00
      25     1     1     2     0     0 -1.128583159E+02 -1.165417819E+02  7.824666514E+01  2.192407968E+02  1.250000000E+02  0.00000E+00  9.000E+00
      21     1     1     2   511   501  6.620119797E+01 -1.050132449E+01 -7.068440537E+01  9.741232772E+01  1.348699152E-06  0.00000E+00  9.000E+00
#rwgt            1           1   4.6295961290276688E-002           8      389375           0
</event>
<event>
      5   9999  3.79277E-02  9.83450E+00 -1.00000E+00  1.96599E-01
      21    -1     0     0   512   501  0.000000000E+00  0.000000000E+00  5.900484662E+02  5.900484662E+02  0.000000000E+00  0.00000E+00  9.000E+00
      21    -1     0     0   501   502  0.000000000E+00  0.000000000E+00 -7.228178776E+01  7.228178776E+01  0.000000000E+00  0.00000E+00  9.000E+00
      25     1     1     2     0     0 -5.685593747E+01 -9.214035557E+01  4.121399694E+02  4.440797193E+02  1.250000000E+02  0.00000E+00  9.000E+00
      25     1     1     2     0     0  6.088565216E+01  1.011113556E+02  7.773370885E+01  1.886745832E+02  1.250000000E+02  0.00000E+00  9.000E+00
      21     1     1     2   512   502 -4.029714685E+00 -8.970999996E+00  2.789300025E+01  2.957595145E+01  4.768371582E-07  0.00000E+00  9.000E+00
#rwgt            1           1   4.2197437352753824E-002           8      389563           0
</event>
<event>
      5   9999  3.79277E-02  1.58751E+02 -1.00000E+00  1.15426E-01
      21    -1     0     0   502   511  0.000000000E+00  0.000000000E+00  1.048030636E+03  1.048030636E+03  0.000000000E+00  0.00000E+00  9.000E+00
      21    -1     0     0   501   502  0.000000000E+00  0.000000000E+00 -1.404237726E+02  1.404237726E+02  0.000000000E+00  0.00000E+00  9.000E+00
      25     1     1     2     0     0  1.170262939E+02  1.899702901E+02  5.721594364E+01  2.620735179E+02  1.250000000E+02  0.00000E+00  9.000E+00
      25     1     1     2     0     0 -2.605050909E+01 -5.987256358E+01  1.409208613E+02  1.993666022E+02  1.250000000E+02  0.00000E+00  9.000E+00
      21     1     1     2   501   511 -9.097578479E+01 -1.300977265E+02  7.094700581E+02  7.270142882E+02  7.629394531E-06  0.00000E+00  9.000E+00
#rwgt            1           1   4.8382462885545992E-002           8      389777           0
</event>
<event>
      5   9999  3.79277E-02  1.51125E+01 -1.00000E+00  1.77078E-01
      21    -1     0     0   502   501  0.000000000E+00  0.000000000E+00  2.226975035E+03  2.226975035E+03  0.000000000E+00  0.00000E+00  9.000E+00
      21    -1     0     0   501   512  0.000000000E+00  0.000000000E+00 -1.095367909E+02  1.095367909E+02  0.000000000E+00  0.00000E+00  9.000E+00
      25     1     1     2     0     0  2.196503467E+01  1.356941493E+02  9.766747921E+02  9.941901300E+02  1.250000000E+02  0.00000E+00  9.000E+00
      25     1     1     2     0     0 -3.403609244E+01 -1.266013954E+02  1.234326043E+03  1.247546451E+03  1.250000000E+02  0.00000E+00  9.000E+00
      21     1     1     2   502   512  1.207105777E+01 -9.092753980E+00 -9.356259064E+01  9.477524455E+01  4.672030912E-06  0.00000E+00  9.000E+00
#rwgt            1           1  0.16635816222144803                8      389859           0
</event>
<event>
      5   9999  3.79277E-02  7.82479E+01 -1.00000E+00  1.28817E-01
      21    -1     0     0   502   511  0.000000000E+00  0.000000000E+00  1.231399790E+02  1.231399790E+02  0.000000000E+00  0.00000E+00  9.000E+00
      21    -1     0     0   501   502  0.000000000E+00  0.000000000E+00 -4.031524612E+02  4.031524612E+02  0.000000000E+00  0.00000E+00  9.000E+00
      25     1     1     2     0     0  7.183869927E+01  1.160826265E+02 -1.866094764E+02  2.628384895E+02  1.250000000E+02  0.00000E+00  9.000E+00
      25     1     1     2     0     0  6.297344545E+00 -1.118995801E+02 -6.869349758E+01  1.813972690E+02  1.250000000E+02  0.00000E+00  9.000E+00
      21     1     1     2   501   511 -7.813604381E+01 -4.183046304E+00 -2.470950825E+01  8.205668173E+01  9.536743164E-07  0.00000E+00  9.000E+00
#rwgt            1           1   3.7727607396841376E-002           8      389989           0
</event>
<event>
      5   9999  3.79277E-02  2.03940E+01 -1.00000E+00  1.65673E-01
      21    -1     0     0   512   501  0.000000000E+00  0.000000000E+00  3.598018309E+01  3.598018309E+01  0.000000000E+00  0.00000E+00  9.000E+00
      21    -1     0     0   501   502  0.000000000E+00  0.000000000E+00 -6.820167143E+02  6.820167143E+02  0.000000000E+00  0.00000E+00  9.000E+00
      25     1     1     2     0     0  5.087258043E+01  3.650958617E+01 -2.536851545E+02  2.896586386E+02  1.250000000E+02  0.00000E+00  9.000E+00
      25     1     1     2     0     0 -3.394958426E+01 -4.789057557E+01 -3.804202995E+02  4.047106198E+02  1.250000000E+02  0.00000E+00  9.000E+00
      21     1     1     2   512   502 -1.692299618E+01  1.138098940E+01 -1.193107719E+01  2.362763895E+01  4.460403188E-07  0.00000E+00  9.000E+00
#rwgt            1           1   5.4054543825068448E-002           8      390089           0
</event>
<event>
      5   9999  3.79277E-02  5.27545E+01 -1.00000E+00  1.37760E-01
      21    -1     0     0   502   511  0.000000000E+00  0.000000000E+00  1.172629972E+03  1.172629972E+03  0.000000000E+00  0.00000E+00  9.000E+00
      21    -1     0     0   501   502  0.000000000E+00  0.000000000E+00 -1.922414743E+02  1.922414743E+02  0.000000000E+00  0.00000E+00  9.000E+00
      25     1     1     2     0     0 -1.574807011E+02 -3.890756492E+01  4.712429259E+01  2.101420205E+02  1.250000000E+02  0.00000E+00  9.000E+00
      25     1     1     2     0     0  1.984431654E+02  7.215080348E+01  2.691907716E+01  2.468502888E+02  1.250000000E+02  0.00000E+00  9.000E+00
      21     1     1     2   501   511 -4.096246436E+01 -3.324323856E+01  9.063451280E+02  9.078791371E+02  1.525878906E-05  0.00000E+00  9.000E+00
#rwgt            1           1   4.6694096457392399E-002           8      390175           0
</event>
<event>
      5   9999 -3.79277E-02  6.76841E+01 -1.00000E+00  1.31965E-01
      21    -1     0     0   502   501  0.000000000E+00  0.000000000E+00  4.137071818E+02  4.137071818E+02  0.000000000E+00  0.00000E+00  9.000E+00
       2    -1     0     0   501     0  0.000000000E+00  0.000000000E+00 -1.567818442E+02  1.567818442E+02  0.000000000E+00  0.00000E+00  9.000E+00
      25     1     1     2     0     0 -2.162923817E+01  1.281545746E+02  1.057097077E+02  2.090238294E+02  1.250000000E+02  0.00000E+00  9.000E+00
      25     1     1     2     0     0 -3.824955798E+01 -9.660037441E+01  2.142811005E+02  2.689536225E+02  1.250000000E+02  0.00000E+00  9.000E+00
       2     1     1     2   502     0  5.987879616E+01 -3.155420021E+01 -6.306547054E+01  9.251157417E+01  1.507891493E-06  0.00000E+00  9.000E+00
#rwgt            1           1  -5.0184241556039545E-002           8      390390           0
</event>
<event>
      5   9999  3.79277E-02  2.32389E+01 -1.00000E+00  1.61164E-01
      21    -1     0     0   502   501  0.000000000E+00  0.000000000E+00  7.613852479E+01  7.613852479E+01  0.000000000E+00  0.00000E+00  9.000E+00
      -1    -1     0     0     0   502  0.000000000E+00  0.000000000E+00 -1.270460442E+03  1.270460442E+03  0.000000000E+00  0.00000E+00  9.000E+00
      25     1     1     2     0     0  4.533791069E+01 -3.755048453E+01 -1.791637715E+01  1.393253803E+02  1.250000000E+02  0.00000E+00  9.000E+00
      25     1     1     2     0     0 -3.741392686E+01  1.570422151E+01 -2.671939817E+02  2.977650892E+02  1.250000000E+02  0.00000E+00  9.000E+00
      -1     1     1     2     0   501 -7.923983827E+00  2.184626302E+01 -9.092115581E+02  9.095084970E+02  1.868812365E-05  0.00000E+00  9.000E+00
#rwgt            1           1   3.8086084449509526E-002           8      390687           0
</event>
<event>
      5   9999  3.79277E-02  1.61767E+01 -1.00000E+00  1.74348E-01
      21    -1     0     0   502   501  0.000000000E+00  0.000000000E+00  4.365418866E+01  4.365418866E+01  0.000000000E+00  0.00000E+00  9.000E+00
      21    -1     0     0   501   511  0.000000000E+00  0.000000000E+00 -1.316852072E+03  1.316852072E+03  0.000000000E+00  0.00000E+00  9.000E+00
      25     1     1     2     0     0  1.515892237E+02  4.966445186E+01 -3.219401471E+02  3.804159682E+02  1.250000000E+02  0.00000E+00  9.000E+00
      25     1     1     2     0     0 -1.660637772E+02 -4.244130727E+01 -7.887798436E+02  8.168090868E+02  1.250000000E+02  0.00000E+00  9.000E+00
      21     1     1     2   502   511  1.447455346E+01 -7.223144596E+00 -1.624778926E+02  1.632812055E+02  1.907348633E-06  0.00000E+00  9.000E+00
#rwgt            1           1   2.1242445383348865E-002           8      390825           0
</event>
<event>
      5   9999  3.79277E-02  2.66821E+01 -1.00000E+00  1.56661E-01
      21    -1     0     0   502   501  0.000000000E+00  0.000000000E+00  1.516525966E+03  1.516525966E+03  0.000000000E+00  0.00000E+00  9.000E+00
      21    -1     0     0   501   512  0.000000000E+00  0.000000000E+00 -4.750826029E+01  4.750826029E+01  0.000000000E+00  0.00000E+00  9.000E+00
      25     1     1     2     0     0  9.468426102E+00 -1.130461710E+02  2.077072653E+02  2.676497635E+02  1.250000000E+02  0.00000E+00  9.000E+00
      25     1     1     2     0     0 -2.829061441E+01  1.319580719E+02  1.255721085E+03  1.269123215E+03  1.250000000E+02  0.00000E+00  9.000E+00
      21     1     1     2   502   512  1.882218831E+01 -1.891190093E+01  5.589356271E+00  2.726124856E+01  9.195356739E-07  0.00000E+00  9.000E+00
#rwgt            1           1   7.8215675887063255E-002           8      391046           0
</event>
<event>
      5   9999  3.79277E-02  1.23492E+02 -1.00000E+00  1.19842E-01
      21    -1     0     0   511   501  0.000000000E+00  0.000000000E+00  2.127157244E+03  2.127157244E+03  0.000000000E+00  0.00000E+00  9.000E+00
      21    -1     0     0   501   502  0.000000000E+00  0.000000000E+00 -1.906498427E+02  1.906498427E+02  0.000000000E+00  0.00000E+00  9.000E+00
      25     1     1     2     0     0  1.282383097E+02  7.870184742E+01  2.561618610E+01  1.972821174E+02  1.250000000E+02  0.00000E+00  9.000E+00
      25     1     1     2     0     0 -4.700439203E+01 -1.717149690E+02  1.225574803E+01  2.178775960E+02  1.250000000E+02  0.00000E+00  9.000E+00
      21     1     1     2   511   502 -8.123391763E+01  9.301312161E+01  1.898635467E+03  1.902647373E+03  0.000000000E+00  0.00000E+00  9.000E+00
#rwgt            1           1   3.3338458551816157E-002           8      391265           0
</event>
<event>
      5   9999  3.79277E-02  1.92179E+02 -1.00000E+00  1.12282E-01
      21    -1     0     0   512   501  0.000000000E+00  0.000000000E+00  4.446354680E+02  4.446354680E+02  0.000000000E+00  0.00000E+00  9.000E+00
      21    -1     0     0   501   502  0.000000000E+00  0.000000000E+00 -3.265939785E+02  3.265939785E+02  0.000000000E+00  0.00000E+00  9.000E+00
      25     1     1     2     0     0 -1.848212775E+02  1.374808522E+02 -1.591299197E+02  3.066059697E+02  1.250000000E+02  0.00000E+00  9.000E+00
      25     1     1     2     0     0 -6.836569098E+00 -1.233423042E+02  1.703440041E+02  2.447491418E+02  1.250000000E+02  0.00000E+00  9.000E+00
      21     1     1     2   512   502  1.916578466E+02 -1.413854804E+01  1.068274051E+02  2.198743350E+02  2.697398305E-06  0.00000E+00  9.000E+00
#rwgt            2          11   2.1076995236469012E-003           8      391615           0
</event>
<event>
      5   9999  3.79277E-02  2.77286E+01 -1.00000E+00  1.55453E-01
      21    -1     0     0   502   501  0.000000000E+00  0.000000000E+00  5.672536976E+02  5.672536976E+02  0.000000000E+00  0.00000E+00  9.000E+00
      21    -1     0     0   501   511  0.000000000E+00  0.000000000E+00 -6.326998492E+02  6.326998492E+02  0.000000000E+00  0.00000E+00  9.000E+00
      25     1     1     2     0     0 -9.180175619E+01  2.048733511E+02  2.632937343E+02  3.678984139E+02  1.250000000E+02  0.00000E+00  9.000E+00
      25     1     1     2     0     0  1.162175291E+02 -2.180166167E+02  1.750029718E+02  3.275496899E+02  1.250000000E+02  0.00000E+00  9.000E+00
      21     1     1     2   502   511 -2.441577287E+01  1.314326556E+01 -5.037428576E+02  5.045054430E+02  5.394796609E-06  0.00000E+00  9.000E+00
#rwgt            1           1   3.0286226328697978E-002           8      391650           0
</event>
<event>
      5   9999  3.79277E-02  1.62304E+02 -1.00000E+00  1.15053E-01
      21    -1     0     0   502   501  0.000000000E+00  0.000000000E+00  1.872241517E+02  1.872241517E+02  0.000000000E+00  0.00000E+00  9.000E+00
      21    -1     0     0   512   502  0.000000000E+00  0.000000000E+00 -5.186700986E+02  5.186700986E+02  0.000000000E+00  0.00000E+00  9.000E+00
      25     1     1     2     0     0  1.228591390E+02 -5.337038899E+01  1.729065251E+01  1.840291638E+02  1.250000000E+02  0.00000E+00  9.000E+00
      25     1     1     2     0     0 -2.545098845E+01  1.831943073E+02 -2.318687088E+02  3.218633330E+02  1.250000000E+02  0.00000E+00  9.000E+00
      21     1     1     2   512   501 -9.740815056E+01 -1.298239183E+02 -1.168678906E+02  2.000017535E+02  3.015782986E-06  0.00000E+00  9.000E+00
#rwgt            1           1   3.5392128268716336E-002           8      391838           0
</event>
<event>
      5   9999  3.79277E-02  3.49378E+01 -1.00000E+00  1.48581E-01
      21    -1     0     0   502   501  0.000000000E+00  0.000000000E+00  2.894871458E+02  2.894871458E+02  0.000000000E+00  0.00000E+00  9.000E+00
      21    -1     0     0   511   502  0.000000000E+00  0.000000000E+00 -4.984711701E+02  4.984711701E+02  0.000000000E+00  0.00000E+00  9.000E+00
      25     1     1     2     0     0 -8.266052893E+01  2.951503829E+02 -3.338925430E+01  3.326955874E+02  1.250000000E+02  0.00000E+00  9.000E+00
      25     1     1     2     0     0  1.122564093E+02 -3.137174382E+02 -9.639100393E+01  3.686954815E+02  1.250000000E+02  0.00000E+00  9.000E+00
      21     1     1     2   511   501 -2.959588039E+01  1.856705528E+01 -7.920376612E+01  8.656724696E+01  1.348699152E-06  0.00000E+00  9.000E+00
#rwgt            1           1   3.8540793027442490E-002           8      391905           0
</event>
<event>
      5   9999  3.79277E-02  6.66240E+00 -1.00000E+00  2.18633E-01
      21    -1     0     0   502   501  0.000000000E+00  0.000000000E+00  4.051976253E+02  4.051976253E+02  0.000000000E+00  0.00000E+00  9.000E+00
      21    -1     0     0   501   512  0.000000000E+00  0.000000000E+00 -1.937510751E+02  1.937510751E+02  0.000000000E+00  0.00000E+00  9.000E+00
      25     1     1     2     0     0  1.608492698E+02  1.286357563E+02  2.261080400E+02  3.304080676E+02  1.250000000E+02  0.00000E+00  9.000E+00
      25     1     1     2     0     0 -1.614367795E+02 -1.219993160E+02  1.482824978E+01  2.383076664E+02  1.250000000E+02  0.00000E+00  9.000E+00
      21     1     1     2   502   512  5.875096743E-01 -6.636440297E+00 -2.948973967E+01  3.023296634E+01  4.768371582E-07  0.00000E+00  9.000E+00
#rwgt            1           1   3.8777693807090584E-002           8      392095           0
</event>
<event>
      5   9999  3.79277E-02  1.28900E+01 -1.00000E+00  1.83819E-01
      21    -1     0     0   502   501  0.000000000E+00  0.000000000E+00  1.463473948E+02  1.463473948E+02  0.000000000E+00  0.00000E+00  9.000E+00
      21    -1     0     0   511   502  0.000000000E+00  0.000000000E+00 -2.816601502E+02  2.816601502E+02  0.000000000E+00  0.00000E+00  9.000E+00
      25     1     1     2     0     0  4.939438215E+01  1.027952972E+02 -1.534439029E+02  2.284222175E+02  1.250000000E+02  0.00000E+00  9.000E+00
      25     1     1     2     0     0 -4.553971957E+01 -1.150954848E+02  3.397004158E+01  1.791641716E+02  1.250000000E+02  0.00000E+00  9.000E+00
      21     1     1     2   511   501 -3.854662583E+00  1.230018761E+01 -1.583889407E+01  2.042115580E+01  0.000000000E+00  0.00000E+00  9.000E+00
#rwgt            1           1   3.9234305968988102E-002           8      392547           0
</event>
<event>
      5   9999  3.79277E-02  4.51950E+01 -1.00000E+00  1.41626E-01
      21    -1     0     0   502   501  0.000000000E+00  0.000000000E+00  2.505218200E+02  2.505218200E+02  0.000000000E+00  0.00000E+00  9.000E+00
      -3    -1     0     0     0   502  0.000000000E+00  0.000000000E+00 -3.984574180E+02  3.984574180E+02  0.000000000E+00  0.00000E+00  9.000E+00
      25     1     1     2     0     0 -1.405176129E+02 -1.526682622E+02 -7.983483193E+01  2.550517559E+02  1.250000000E+02  0.00000E+00  9.000E+00
      25     1     1     2     0     0  9.892145118E+01  1.703415341E+02  7.404974738E+01  2.447653097E+02  1.250000000E+02  0.00000E+00  9.000E+00
      -3     1     1     2     0   501  4.159616173E+01 -1.767327190E+01 -1.421505134E+02  1.491621724E+02  1.907348633E-06  0.00000E+00  9.000E+00
#rwgt            1           1   3.5796442649321705E-002           8      392681           0
</event>
<event>
      5   9999  3.79277E-02  1.61888E+01 -1.00000E+00  1.74319E-01
       3    -1     0     0   502     0  0.000000000E+00  0.000000000E+00  3.970420763E+02  3.970420763E+02  0.000000000E+00  0.00000E+00  9.000E+00
      21    -1     0     0   501   502  0.000000000E+00  0.000000000E+00 -3.283858010E+02  3.283858010E+02  0.000000000E+00  0.00000E+00  9.000E+00
      25     1     1     2     0     0  3.680533419E+01 -3.765737997E+01 -1.086886479E+02  1.738129255E+02  1.250000000E+02  0.00000E+00  9.000E+00
      25     1     1     2     0     0 -4.180403548E+01  2.225965433E+01 -1.630475187E+02  2.108377645E+02  1.250000000E+02  0.00000E+00  9.000E+00
       3     1     1     2   501     0  4.998701287E+00  1.539772564E+01  3.403924418E+02  3.407771873E+02  0.000000000E+00  0.00000E+00  9.000E+00
#rwgt            1           1   2.7388629739888062E-002           8      392961           0
</event>
<event>
      5   9999  3.79277E-02  6.32397E+01 -1.00000E+00  1.33494E-01
      21    -1     0     0   511   501  0.000000000E+00  0.000000000E+00  1.113930725E+03  1.113930725E+03  0.000000000E+00  0.00000E+00  9.000E+00
      21    -1     0     0   501   502  0.000000000E+00  0.000000000E+00 -9.136411689E+01  9.136411689E+01  0.000000000E+00  0.00000E+00  9.000E+00
      25     1     1     2     0     0 -1.686915037E+01 -5.839379469E+01  2.953385232E-01  1.389945708E+02  1.250000000E+02  0.00000E+00  9.000E+00
      25     1     1     2     0     0  3.540642363E+01 -2.068055905E+00  1.818342313E+02  2.234873137E+02  1.250000000E+02  0.00000E+00  9.000E+00
      21     1     1     2   511   502 -1.853727326E+01  6.046185060E+01  8.404370378E+02  8.428129570E+02  1.525878906E-05  0.00000E+00  9.000E+00
#rwgt            1           1   4.0257442805066254E-002           8      393174           0
</event>
<event>
      5   9999  3.79277E-02  1.53487E+02 -1.00000E+00  1.15999E-01
      21    -1     0     0   502   501  0.000000000E+00  0.000000000E+00  5.004646066E+02  5.004646066E+02  0.000000000E+00  0.00000E+00  9.000E+00
      21    -1     0     0   501   512  0.000000000E+00  0.000000000E+00 -2.196566469E+02  2.196566469E+02  0.000000000E+00  0.00000E+00  9.000E+00
      25     1     1     2     0     0  8.950041860E+01  2.858345007E+01  2.902972714E+02  3.297345058E+02  1.250000000E+02  0.00000E+00  9.000E+00
      25     1     1     2     0     0 -1.455101207E+02  1.143188563E+02 -5.559346285E+01  2.301252469E+02  1.250000000E+02  0.00000E+00  9.000E+00
      21     1     1     2   502   512  5.600970213E+01 -1.429023064E+02  4.610415116E+01  1.602615009E+02  2.132480600E-06  0.00000E+00  9.000E+00
#rwgt            1           1   4.1659839434386850E-002           8      393246           0
</event>
<event>
      5   9999  3.79277E-02  2.97977E+01 -1.00000E+00  1.53244E-01
      21    -1     0     0   502   501  0.000000000E+00  0.000000000E+00  2.907880465E+03  2.907880465E+03  0.000000000E+00  0.00000E+00  9.000E+00
      21    -1     0     0   511   502  0.000000000E+00  0.000000000E+00 -1.160058067E+02  1.160058067E+02  0.000000000E+00  0.00000E+00  9.000E+00
      25     1     1     2     0     0 -5.067743605E+01  1.434198147E+02  2.325900456E+02  3.047303318E+02  1.250000000E+02  0.00000E+00  9.000E+00
      25     1     1     2     0     0  4.024543027E+01 -1.713317881E+02  2.631861805E+03  2.640699877E+03  1.250000000E+02  0.00000E+00  9.000E+00
      21     1     1     2   511   501  1.043200578E+01  2.791197339E+01 -7.257719258E+01  7.845606341E+01  2.861022949E-06  0.00000E+00  9.000E+00
#rwgt            1           1   4.0623546814693573E-002           8      393427           0
</event>
<event>
      5   9999  3.79277E-02  3.51175E+01 -1.00000E+00  1.48436E-01
      21    -1     0     0   502   501  0.000000000E+00  0.000000000E+00  2.820144340E+02  2.820144340E+02  0.000000000E+00  0.00000E+00  9.000E+00
      21    -1     0     0   512   502  0.000000000E+00  0.000000000E+00 -3.060138844E+02  3.060138844E+02  0.000000000E+00  0.00000E+00  9.000E+00
      25     1     1     2     0     0  4.056532443E+01  1.648782264E+02  6.019317711E+01  2.192683143E+02  1.250000000E+02  0.00000E+00  9.000E+00
      25     1     1     2     0     0 -6.540828178E+01 -1.896989249E+02  3.993740508E+01  2.397580484E+02  1.250000000E+02  0.00000E+00  9.000E+00
      21     1     1     2   512   501  2.484295735E+01  2.482069852E+01 -1.241300326E+02  1.290019558E+02  2.336015456E-06  0.00000E+00  9.000E+00
#rwgt            1           1   6.6018208688764984E-002           8      393603           0
</event>
<event>
      5   9999  3.79277E-02  5.89706E+01 -1.00000E+00  1.35106E-01
       2    -1     0     0   502     0  0.000000000E+00  0.000000000E+00  2.042127609E+03  2.042127609E+03  0.000000000E+00  0.00000E+00  9.000E+00
      21    -1     0     0   501   502  0.000000000E+00  0.000000000E+00 -2.748374924E+02  2.748374924E+02  0.000000000E+00  0.00000E+00  9.000E+00
      25     1     1     2     0     0 -4.088392535E+01  1.065166405E+02  1.787382023E+02  2.461496192E+02  1.250000000E+02  0.00000E+00  9.000E+00
      25     1     1     2     0     0 -5.191625153E+00 -6.971216461E+01 -2.193424388E+02  2.619596235E+02  1.250000000E+02  0.00000E+00  9.000E+00
       2     1     1     2   501     0  4.607555050E+01 -3.680447588E+01  1.807894353E+03  1.808855859E+03  2.157918644E-05  0.00000E+00  9.000E+00
#rwgt            1           1   5.1411035545610849E-002           8      393846           0
</event>
<event>
      5   9999  3.79277E-02  1.08785E+02 -1.00000E+00  1.22205E-01
      21    -1     0     0   502   501  0.000000000E+00  0.000000000E+00  3.841590375E+02  3.841590375E+02  0.000000000E+00  0.00000E+00  9.000E+00
      21    -1     0     0   511   502  0.000000000E+00  0.000000000E+00 -2.669584485E+02  2.669584485E+02  0.000000000E+00  0.00000E+00  9.000E+00
      25     1     1     2     0     0  3.972877060E+01  1.644125042E+02  1.749280227E+02  2.735592439E+02  1.250000000E+02  0.00000E+00  9.000E+00
      25     1     1     2     0     0  6.362541820E+01 -1.304702260E+02  7.519863777E+01  2.057923925E+02  1.250000000E+02  0.00000E+00  9.000E+00
      21     1     1     2   511   501 -1.033541888E+02 -3.394227825E+01 -1.329260716E+02  1.717658496E+02  3.303624740E-06  0.00000E+00  9.000E+00
#rwgt            1           1   3.1266148036259059E-002           8      393995           0
</event>
<event>
      5   9999  3.79277E-02  6.25808E+01 -1.00000E+00  1.33733E-01
      21    -1     0     0   502   501  0.000000000E+00  0.000000000E+00  3.838960764E+02  3.838960764E+02  0.000000000E+00  0.00000E+00  9.000E+00
      21    -1     0     0   512   502  0.000000000E+00  0.000000000E+00 -7.149582955E+02  7.149582955E+02  0.000000000E+00  0.00000E+00  9.000E+00
      25     1     1     2     0     0 -1.055337357E+02  4.312534195E+02 -2.026456806E+02  5.037927679E+02  1.250000000E+02  0.00000E+00  9.000E+00
      25     1     1     2     0     0  1.627925798E+02 -4.565077185E+02 -6.290482550E+01  5.044628214E+02  1.250000000E+02  0.00000E+00  9.000E+00
      21     1     1     2   512   501 -5.725884410E+01  2.525429907E+01 -6.551171306E+01  9.059878254E+01  1.348699152E-06  0.00000E+00  9.000E+00
#rwgt            1           1   4.8928328318024517E-002           8      394190           0
</event>
<event>
      5   9999  3.79277E-02  3.03420E+01 -1.00000E+00  1.52699E-01
      21    -1     0     0   511   501  0.000000000E+00  0.000000000E+00  2.448729039E+02  2.448729039E+02  0.000000000E+00  0.00000E+00  9.000E+00
      21    -1     0     0   501   502  0.000000000E+00  0.000000000E+00 -2.466816213E+02  2.466816213E+02  0.000000000E+00  0.00000E+00  9.000E+00
      25     1     1     2     0     0 -4.780827029E+00  3.053749658E+01 -1.976376285E+02  2.358835034E+02  1.250000000E+02  0.00000E+00  9.000E+00
      25     1     1     2     0     0  3.496281833E+01 -2.742556361E+01  1.454755892E+02  1.968824707E+02  1.250000000E+02  0.00000E+00  9.000E+00
      21     1     1     2   511   502 -3.018199130E+01 -3.111932969E+00  5.035332176E+01  5.878855108E+01  0.000000000E+00  0.00000E+00  9.000E+00
#rwgt            1           1   5.3207824924581204E-002           8      394289           0
</event>
<event>
      5   9999  3.79277E-02  3.28736E+01 -1.00000E+00  1.50331E-01
      21    -1     0     0   512   501  0.000000000E+00  0.000000000E+00  1.787541903E+03  1.787541903E+03  0.000000000E+00  0.00000E+00  9.000E+00
      21    -1     0     0   501   502  0.000000000E+00  0.000000000E+00 -2.515943872E+03  2.515943872E+03  0.000000000E+00  0.00000E+00  9.000E+00
      25     1     1     2     0     0 -6.961150417E+01  1.629907397E+01 -2.360233375E+03  2.364622170E+03  1.250000000E+02  0.00000E+00  9.000E+00
      25     1     1     2     0     0  7.880404345E+01 -4.786129723E+01 -1.140330419E+02  1.926896875E+02  1.250000000E+02  0.00000E+00  9.000E+00
      21     1     1     2   512   502 -9.192539283E+00  3.156222326E+01  1.745864448E+03  1.746173917E+03  3.051757812E-05  0.00000E+00  9.000E+00
#rwgt            1           1  0.11841810063082782                8      394512           0
</event>
<event>
      5   9999  3.79277E-02  2.81391E+01 -1.00000E+00  1.54997E-01
      21    -1     0     0   502   501  0.000000000E+00  0.000000000E+00  5.471276393E+02  5.471276393E+02  0.000000000E+00  0.00000E+00  9.000E+00
      21    -1     0     0   501   511  0.000000000E+00  0.000000000E+00 -1.558957394E+02  1.558957394E+02  0.000000000E+00  0.00000E+00  9.000E+00
      25     1     1     2     0     0  4.156101705E+00  5.358572599E+01  4.438944885E+02  4.642801096E+02  1.250000000E+02  0.00000E+00  9.000E+00
      25     1     1     2     0     0  1.709353433E+01 -7.203195058E+01  3.265667008E+01  1.489034886E+02  1.250000000E+02  0.00000E+00  9.000E+00
      21     1     1     2   502   511 -2.124963603E+01  1.844622460E+01 -8.531925873E+01  8.983978041E+01  9.536743164E-07  0.00000E+00  9.000E+00
#rwgt            1           1   3.5936446795600673E-002           8      394749           0
</event>
<event>
      5   9999  3.79277E-02  3.08702E+01 -1.00000E+00  1.52182E-01
      21    -1     0     0   502   501  0.000000000E+00  0.000000000E+00  4.936264900E+02  4.936264900E+02  0.000000000E+00  0.00000E+00  9.000E+00
      21    -1     0     0   501   512  0.000000000E+00  0.000000000E+00 -1.265252468E+02  1.265252468E+02  0.000000000E+00  0.00000E+00  9.000E+00
      25     1     1     2     0     0  1.113823137E+02  9.762955864E+01  3.804253585E+01  1.975089493E+02  1.250000000E+02  0.00000E+00  9.000E+00
      25     1     1     2     0     0 -8.541376026E+01 -8.093821402E+01  3.468522873E+02  3.870116460E+02  1.250000000E+02  0.00000E+00  9.000E+00
      21     1     1     2   502   512 -2.596855344E+01 -1.669134462E+01 -1.779357994E+01  3.563114143E+01  3.371747881E-07  0.00000E+00  9.000E+00
#rwgt            1           1   9.2016043879981538E-002           8      394871           0
</event>
<event>
      5   9999  3.79277E-02  6.85409E+01 -1.00000E+00  1.31686E-01
      21    -1     0     0   502   501  0.000000000E+00  0.000000000E+00  8.007870026E+02  8.007870026E+02  0.000000000E+00  0.00000E+00  9.000E+00
      -1    -1     0     0     0   502  0.000000000E+00  0.000000000E+00 -2.440488709E+02  2.440488709E+02  0.000000000E+00  0.00000E+00  9.000E+00
      25     1     1     2     0     0 -1.382811944E+02  1.471163109E+02  1.834998830E+02  3.001034900E+02  1.250000000E+02  0.00000E+00  9.000E+00
      25     1     1     2     0     0  9.681533214E+01 -9.254129616E+01  5.369014735E+02  5.672964765E+02  1.250000000E+02  0.00000E+00  9.000E+00
      -1     1     1     2     0   501  4.146586222E+01 -5.457501477E+01 -1.636632247E+02  1.774359070E+02  0.000000000E+00  0.00000E+00  9.000E+00
#rwgt            1           1   3.2988864439617710E-002           8      395028           0
</event>
<event>
      5   9999  3.79277E-02  1.65089E+02 -1.00000E+00  1.14767E-01
      21    -1     0     0   502   501  0.000000000E+00  0.000000000E+00  1.022022379E+02  1.022022379E+02  0.000000000E+00  0.00000E+00  9.000E+00
       1    -1     0     0   501     0  0.000000000E+00  0.000000000E+00 -1.075982068E+03  1.075982068E+03  0.000000000E+00  0.00000E+00  9.000E+00
      25     1     1     2     0     0  9.762990180E+01  1.070852858E+02 -8.853629040E+01  2.108614021E+02  1.250000000E+02  0.00000E+00  9.000E+00
      25     1     1     2     0     0  6.686994250E+01 -1.210221360E+02 -2.552797611E+02  3.160865436E+02  1.250000000E+02  0.00000E+00  9.000E+00
       1     1     1     2   502     0 -1.644998443E+02  1.393685012E+01 -6.299637783E+02  6.512363599E+02  7.629394531E-06  0.00000E+00  9.000E+00
#rwgt            1           1   3.7521799965418774E-002           8      395130           0
</event>
<event>
      5   9999  3.79277E-02  2.04710E+02 -1.00000E+00  1.11281E-01
      21    -1     0     0   511   501  0.000000000E+00  0.000000000E+00  2.080661557E+02  2.080661557E+02  0.000000000E+00  0.00000E+00  9.000E+00
      21    -1     0     0   501   502  0.000000000E+00  0.000000000E+00 -1.004895136E+03  1.004895136E+03  0.000000000E+00  0.00000E+00  9.000E+00
      25     1     1     2     0     0 -5.143511818E+01 -3.297516990E+02 -3.127495973E+02  4.741508884E+02  1.250000000E+02  0.00000E+00  9.000E+00
      25     1     1     2     0     0 -1.421129279E+02  2.630771826E+02 -4.065351545E+02  5.199052991E+02  1.250000000E+02  0.00000E+00  9.000E+00
      21     1     1     2   511   502  1.935480461E+02  6.667451644E+01 -7.754422860E+01  2.189051042E+02  2.523185073E-06  0.00000E+00  9.000E+00
#rwgt            1           1   6.6308284846591098E-002           8      395239           0
</event>
<event>
      5   9999  3.79277E-02  4.25996E+01 -1.00000E+00  1.43164E-01
      21    -1     0     0   512   501  0.000000000E+00  0.000000000E+00  1.831467470E+02  1.831467470E+02  0.000000000E+00  0.00000E+00  9.000E+00
      21    -1     0     0   501   502  0.000000000E+00  0.000000000E+00 -7.032991955E+02  7.032991955E+02  0.000000000E+00  0.00000E+00  9.000E+00
      25     1     1     2     0     0 -1.638407021E+02 -2.186722622E+02 -1.425888079E+02  3.325926970E+02  1.250000000E+02  0.00000E+00  9.000E+00
      25     1     1     2     0     0  2.020300042E+02  2.375483490E+02 -3.846030855E+02  5.106758993E+02  1.250000000E+02  0.00000E+00  9.000E+00
      21     1     1     2   512   502 -3.818930209E+01 -1.887608674E+01  7.039444901E+00  4.317734625E+01  8.429369702E-07  0.00000E+00  9.000E+00
#rwgt            1           1  0.12270147179301258                8      395317           0
</event>
<event>
      5   9999  3.79277E-02  3.12304E+01 -1.00000E+00  1.51837E-01
      21    -1     0     0   502   501  0.000000000E+00  0.000000000E+00  2.058298931E+02  2.058298931E+02  0.000000000E+00  0.00000E+00  9.000E+00
      21    -1     0     0   511   502  0.000000000E+00  0.000000000E+00 -1.285126680E+03  1.285126680E+03  0.000000000E+00  0.00000E+00  9.000E+00
      25     1     1     2     0     0  3.936293093E+01 -8.650332264E+01  7.732467618E+01  1.750324847E+02  1.250000000E+02  0.00000E+00  9.000E+00
      25     1     1     2     0     0 -6.400495394E+01  6.731722288E+01  3.116497081E+00  1.557657060E+02  1.250000000E+02  0.00000E+00  9.000E+00
      21     1     1     2   511   501  2.464202300E+01  1.918609976E+01 -1.159737960E+03  1.160158383E+03  1.525878906E-05  0.00000E+00  9.000E+00
#rwgt            1           1   5.1326720026516920E-002           8      395468           0
</event>
<event>
      5   9999  3.79277E-02  1.47787E+01 -1.00000E+00  1.77994E-01
      21    -1     0     0   502   501  0.000000000E+00  0.000000000E+00  1.511696400E+02  1.511696400E+02  0.000000000E+00  0.00000E+00  9.000E+00
      21    -1     0     0   501   512  0.000000000E+00  0.000000000E+00 -3.120170071E+02  3.120170071E+02  0.000000000E+00  0.00000E+00  9.000E+00
      25     1     1     2     0     0  6.933184188E+01  9.199316364E+01  1.437693358E+01  1.705911565E+02  1.250000000E+02  0.00000E+00  9.000E+00
      25     1     1     2     0     0 -6.970552501E+01 -1.067671181E+02 -7.901879611E+01  1.952614858E+02  1.250000000E+02  0.00000E+00  9.000E+00
      21     1     1     2   502   512  3.736831281E-01  1.477395441E+01 -9.620550457E+01  9.733400474E+01  0.000000000E+00  0.00000E+00  9.000E+00
#rwgt            1           1   2.5259776430911304E-002           8      395582           0
</event>
<event>
      5   9999  3.79277E-02  1.01892E+02 -1.00000E+00  1.23463E-01
      21    -1     0     0   502   501  0.000000000E+00  0.000000000E+00  3.580257402E+02  3.580257402E+02  0.000000000E+00  0.00000E+00  9.000E+00
      21    -1     0     0   501   511  0.000000000E+00  0.000000000E+00 -2.913803662E+03  2.913803662E+03  0.000000000E+00  0.00000E+00  9.000E+00
      25     1     1     2     0     0 -8.394556320E+01  6.182555096E+01  1.818025649E+02  2.440213698E+02  1.250000000E+02  0.00000E+00  9.000E+00
      25     1     1     2     0     0  1.683219092E+02 -4.706478799E+00  6.793583747E+01  2.204420425E+02  1.250000000E+02  0.00000E+00  9.000E+00
      21     1     1     2   502   511 -8.437634602E+01 -5.711907216E+01 -2.805516324E+03  2.807365989E+03  3.051757812E-05  0.00000E+00  9.000E+00
#rwgt            1           1   3.9376826259492764E-002           8      395697           0
</event>
<event>
      5   9999  3.79277E-02  4.35674E+00 -1.00000E+00  2.55024E-01
      21    -1     0     0   502   501  0.000000000E+00  0.000000000E+00  4.648755707E+02  4.648755707E+02  0.000000000E+00  0.00000E+00  9.000E+00
      21    -1     0     0   512   502  0.000000000E+00  0.000000000E+00 -3.412296117E+02  3.412296117E+02  0.000000000E+00  0.00000E+00  9.000E+00
      25     1     1     2     0     0  2.010848510E+02 -7.521826136E+01  2.744842044E+02  3.702154543E+02  1.250000000E+02  0.00000E+00  9.000E+00
      25     1     1     2     0     0 -1.967282208E+02  7.524987895E+01  3.725609579E+01  2.477449370E+02  1.250000000E+02  0.00000E+00  9.000E+00
      21     1     1     2   512   501 -4.356630152E+00 -3.161758935E-02 -1.880943412E+02  1.881447911E+02  2.697398305E-06  0.00000E+00  9.000E+00
#rwgt            1           1   3.9300236157753868E-002           8      395848           0
</event>
<event>
      5   9999  5.60737E-02  7.89958E+01 -1.00000E+00  1.28616E-01
      21    -1     0     0   502   501  0.000000000E+00  0.000000000E+00  5.241600529E+02  5.241600529E+02  0.000000000E+00  0.00000E+00  9.000E+00
      21    -1     0     0   501   511  0.000000000E+00  0.000000000E+00 -1.588032275E+03  1.588032275E+03  0.000000000E+00  0.00000E+00  9.000E+00
      25     1     1     2     0     0  4.051660124E+01 -1.272733262E+02  2.572931156E+02  3.156973897E+02  1.250000000E+02  0.00000E+00  9.000E+00
      25     1     1     2     0     0  3.810519103E+01  1.349516784E+02  1.993581174E+02  2.739208281E+02  1.250000000E+02  0.00000E+00  9.000E+00
      21     1     1     2   502   511 -7.862179227E+01 -7.678352269E+00 -1.520523455E+03  1.522574110E+03  0.000000000E+00  0.00000E+00  9.000E+00
#rwgt            2          11   6.7813317796870581E-002           8      396293           0
</event>
<event>
      5   9999  3.79277E-02  6.64487E+01 -1.00000E+00  1.32376E-01
      21    -1     0     0   512   501  0.000000000E+00  0.000000000E+00  3.115272758E+02  3.115272758E+02  0.000000000E+00  0.00000E+00  9.000E+00
      21    -1     0     0   501   502  0.000000000E+00  0.000000000E+00 -2.194615111E+02  2.194615111E+02  0.000000000E+00  0.00000E+00  9.000E+00
      25     1     1     2     0     0  5.640564064E+01 -1.156977913E+02 -2.975862929E+01  1.818739982E+02  1.250000000E+02  0.00000E+00  9.000E+00
      25     1     1     2     0     0 -2.765302044E+01  1.756037020E+02  8.180764699E+00  2.174701694E+02  1.250000000E+02  0.00000E+00  9.000E+00
      21     1     1     2   512   502 -2.875262020E+01 -5.990591068E+01  1.136436293E+02  1.316446192E+02  1.907348633E-06  0.00000E+00  9.000E+00
#rwgt            1           1   4.4381450166033419E-002           8      396328           0
</event>
<event>
      5   9999  3.79277E-02  2.65986E+01 -1.00000E+00  1.56761E-01
      21    -1     0     0   511   501  0.000000000E+00  0.000000000E+00  1.389345908E+02  1.389345908E+02  0.000000000E+00  0.00000E+00  9.000E+00
      21    -1     0     0   501   502  0.000000000E+00  0.000000000E+00 -3.350320653E+02  3.350320653E+02  0.000000000E+00  0.00000E+00  9.000E+00
      25     1     1     2     0     0 -1.577551490E+02  5.870986084E+01 -1.240264335E+02  2.436002689E+02  1.250000000E+02  0.00000E+00  9.000E+00
      25     1     1     2     0     0  1.314968359E+02 -6.295082724E+01 -6.034388795E+01  2.012973157E+02  1.250000000E+02  0.00000E+00  9.000E+00
      21     1     1     2   511   502  2.625831303E+01  4.240966399E+00 -1.172715304E+01  2.906907149E+01  3.769728732E-07  0.00000E+00  9.000E+00
#rwgt            1           1   2.3297026524551338E-002           8      396481           0
</event>
<event>
      5   9999  3.79277E-02  6.12847E+01 -1.00000E+00  1.34214E-01
      21    -1     0     0   502   501  0.000000000E+00  0.000000000E+00  1.210798196E+02  1.210798196E+02  0.000000000E+00  0.00000E+00  9.000E+00
      21    -1     0     0   512   502  0.000000000E+00  0.000000000E+00 -7.827119496E+02  7.827119496E+02  0.000000000E+00  0.00000E+00  9.000E+00
      25     1     1     2     0     0 -1.891899951E+02 -8.588045935E+01 -1.118675755E+02  2.670349453E+02  1.250000000E+02  0.00000E+00  9.000E+00
      25     1     1     2     0     0  2.222698966E+02  3.429044649E+01 -4.086263822E+02  4.828874216E+02  1.250000000E+02  0.00000E+00  9.000E+00
      21     1     1     2   512   501 -3.307990152E+01  5.159001286E+01 -1.411381723E+02  1.538694024E+02  1.907348633E-06  0.00000E+00  9.000E+00
#rwgt            2          11   2.7115712471391016E-003           8      396700           0
</event>
<event>
      5   9999  3.79277E-02  9.13055E+01 -1.00000E+00  1.25631E-01
      21    -1     0     0   502   501  0.000000000E+00  0.000000000E+00  7.958735357E+02  7.958735357E+02  0.000000000E+00  0.00000E+00  9.000E+00
      21    -1     0     0   511   502  0.000000000E+00  0.000000000E+00 -1.932601802E+02  1.932601802E+02  0.000000000E+00  0.00000E+00  9.000E+00
      25     1     1     2     0     0  1.397178501E+02  7.090362540E+01  4.729914342E+02  5.137064323E+02  1.250000000E+02  0.00000E+00  9.000E+00
      25     1     1     2     0     0 -7.617983637E+01 -1.364750448E+02  2.525909759E+02  3.222669800E+02  1.250000000E+02  0.00000E+00  9.000E+00
      21     1     1     2   511   501 -6.353801370E+01  6.557141939E+01 -1.229690545E+02  1.531603036E+02  2.336015456E-06  0.00000E+00  9.000E+00
#rwgt            1           1   3.2130591119893290E-002           8      396735           0
</event>
<event>
      5   9999  3.79277E-02  4.13257E+01 -1.00000E+00  1.43967E-01
      21    -1     0     0   502   501  0.000000000E+00  0.000000000E+00  6.779212534E+01  6.779212534E+01  0.000000000E+00  0.00000E+00  9.000E+00
      21    -1     0     0   501   512  0.000000000E+00  0.000000000E+00 -6.432893323E+02  6.432893323E+02  0.000000000E+00  0.00000E+00  9.000E+00
      25     1     1     2     0     0  6.621448236E+01 -1.138252538E+02 -2.789038458E+02  3.327955849E+02  1.250000000E+02  0.00000E+00  9.000E+00
      25     1     1     2     0     0 -2.842964173E+01  1.305620409E+02 -1.891454061E+02  2.631647311E+02  1.250000000E+02  0.00000E+00  9.000E+00
      21     1     1     2   502   512 -3.778484063E+01 -1.673678704E+01 -1.074479551E+02  1.151211417E+02  1.348699152E-06  0.00000E+00  9.000E+00
#rwgt            1           1   2.6972516525898868E-002           8      396928           0
</event>
<event>
      5   9999  3.79277E-02  3.17350E+01 -1.00000E+00  1.51363E-01
      21    -1     0     0   502   501  0.000000000E+00  0.000000000E+00  7.558056053E+01  7.558056053E+01  0.000000000E+00  0.00000E+00  9.000E+00
      21    -1     0     0   511   502  0.000000000E+00  0.000000000E+00 -6.999052942E+02  6.999052942E+02  0.000000000E+00  0.00000E+00  9.000E+00
      25     1     1     2     0     0  1.143160928E+02 -1.744545776E+01 -6.176419372E+01  1.811417365E+02  1.250000000E+02  0.00000E+00  9.000E+00
      25     1     1     2     0     0 -9.050491105E+01 -3.533947730E+00 -5.109356516E+02  5.337451338E+02  1.250000000E+02  0.00000E+00  9.000E+00
      21     1     1     2   511   501 -2.381118171E+01  2.097940549E+01 -5.162488829E+01  6.059898449E+01  9.536743164E-07  0.00000E+00  9.000E+00
#rwgt            1           1   4.5454825830171429E-002           8      397047           0
</event>
<event>
      5   9999  3.79277E-02  1.98447E+02 -1.00000E+00  1.11771E-01
      21    -1     0     0   502   501  0.000000000E+00  0.000000000E+00  8.408002140E+02  8.408002140E+02  0.000000000E+00  0.00000E+00  9.000E+00
       2    -1     0     0   501     0  0.000000000E+00  0.000000000E+00 -2.407258888E+02  2.407258888E+02  0.000000000E+00  0.00000E+00  9.000E+00
      25     1     1     2     0     0 -7.152788751E+01  4.036703730E+01  2.039825198E+02  2.529419000E+02  1.250000000E+02  0.00000E+00  9.000E+00
      25     1     1     2     0     0  2.539876477E+02  3.766887506E+01  5.209756217E+02  5.941121676E+02  1.250000000E+02  0.00000E+00  9.000E+00
       2     1     1     2   502     0 -1.824597601E+02 -7.803591236E+01 -1.248838163E+02  2.344720351E+02  1.348699152E-06  0.00000E+00  9.000E+00
#rwgt            1           1   3.8002159093298793E-002           8      397190           0
</event>
<event>
      5   9999  3.79277E-02  1.25666E+02 -1.00000E+00  1.19524E-01
      21    -1     0     0   511   501  0.000000000E+00  0.000000000E+00  1.433903141E+03  1.433903141E+03  0.000000000E+00  0.00000E+00  9.000E+00
      21    -1     0     0   501   502  0.000000000E+00  0.000000000E+00 -6.358124471E+01  6.358124471E+01  0.000000000E+00  0.00000E+00  9.000E+00
      25     1     1     2     0     0  1.239776427E+02  1.292036387E+02  5.348979510E+02  5.777584738E+02  1.250000000E+02  0.00000E+00  9.000E+00
      25     1     1     2     0     0 -2.155284479E+02 -4.311949896E+01  4.764239214E+02  5.393668102E+02  1.250000000E+02  0.00000E+00  9.000E+00
      21     1     1     2   511   502  9.155080520E+01 -8.608413976E+01  3.590000242E+02  3.803591019E+02  3.814697266E-06  0.00000E+00  9.000E+00
#rwgt            2          11   2.3211949242498489E-003           8      397302           0
</event>
<event>
      5   9999  3.79277E-02  3.90995E+01 -1.00000E+00  1.45456E-01
      21    -1     0     0   512   501  0.000000000E+00  0.000000000E+00  1.098115299E+02  1.098115299E+02  0.000000000E+00  0.00000E+00  9.000E+00
      21    -1     0     0   501   502  0.000000000E+00  0.000000000E+00 -6.522692340E+02  6.522692340E+02  0.000000000E+00  0.00000E+00  9.000E+00
      25     1     1     2     0     0 -4.284282627E+01  1.404314183E+02 -4.631282951E+02  5.016665314E+02  1.250000000E+02  0.00000E+00  9.000E+00
      25     1     1     2     0     0  4.671325684E+00 -1.319633730E+02 -1.084036778E+02  2.116896560E+02  1.250000000E+02  0.00000E+00  9.000E+00
      21     1     1     2   512   502  3.817150058E+01 -8.468045346E+00  2.907426879E+01  4.872457650E+01  1.261592536E-06  0.00000E+00  9.000E+00
#rwgt            1           1   4.1952613407859163E-002           8      397322           0
</event>
<event>
      5   9999  3.79277E-02  2.28642E+01 -1.00000E+00  1.61712E-01
      21    -1     0     0   511   501  0.000000000E+00  0.000000000E+00  8.579557943E+01  8.579557943E+01  0.000000000E+00  0.00000E+00  9.000E+00
      21    -1     0     0   501   502  0.000000000E+00  0.000000000E+00 -5.065981551E+02  5.065981551E+02  0.000000000E+00  0.00000E+00  9.000E+00
      25     1     1     2     0     0 -1.691138722E+01 -1.283800479E+02 -7.830004531E+01  1.962736070E+02  1.250000000E+02  0.00000E+00  9.000E+00
      25     1     1     2     0     0  1.303650302E+01  1.058465695E+02 -3.330542438E+02  3.713806349E+02  1.250000000E+02  0.00000E+00  9.000E+00
      21     1     1     2   511   502  3.874884196E+00  2.253347838E+01 -9.448286597E+00  2.473949262E+01  3.953724850E-07  0.00000E+00  9.000E+00
#rwgt            1           1   2.7242022059139941E-002           8      397434           0
</event>
<event>
      5   9999  3.79277E-02  2.92873E+01 -1.00000E+00  1.53769E-01
      21    -1     0     0   502   512  0.000000000E+00  0.000000000E+00  2.975376864E+03  2.975376864E+03  0.000000000E+00  0.00000E+00  9.000E+00
      21    -1     0     0   501   502  0.000000000E+00  0.000000000E+00 -7.213552666E+01  7.213552666E+01  0.000000000E+00  0.00000E+00  9.000E+00
      25     1     1     2     0     0  5.583844551E+01 -4.433069568E+01  1.748440540E+02  2.264477551E+02  1.250000000E+02  0.00000E+00  9.000E+00
      25     1     1     2     0     0 -7.734479336E+01  2.445042389E+01  7.376681900E+01  1.662726191E+02  1.250000000E+02  0.00000E+00  9.000E+00
      21     1     1     2   501   512  2.150634785E+01  1.988027179E+01  2.654630464E+03  2.654792017E+03  4.315837288E-05  0.00000E+00  9.000E+00
#rwgt            1           1  0.21831614662951032                8      397633           0
</event>
<event>
      5   9999  3.79277E-02  1.05847E+01 -1.00000E+00  1.92947E-01
      21    -1     0     0   502   501  0.000000000E+00  0.000000000E+00  4.148492338E+02  4.148492338E+02  0.000000000E+00  0.00000E+00  9.000E+00
      21    -1     0     0   511   502  0.000000000E+00  0.000000000E+00 -8.775647325E+01  8.775647325E+01  0.000000000E+00  0.00000E+00  9.000E+00
      25     1     1     2     0     0  4.679132924E+01 -1.551486791E+01  5.607770028E+00  1.344863811E+02  1.250000000E+02  0.00000E+00  9.000E+00
      25     1     1     2     0     0 -5.622189537E+01  1.070858229E+01  3.280301072E+02  3.556744670E+02  1.250000000E+02  0.00000E+00  9.000E+00
      21     1     1     2   511   501  9.430566135E+00  4.806285626E+00 -6.545116742E+00  1.244485887E+01  2.064765462E-07  0.00000E+00  9.000E+00
#rwgt            1           1   3.0972700464480214E-002           8      397956           0
</event>
<event>
      5   9999  3.79277E-02  3.04563E+01 -1.00000E+00  1.52586E-01
      21    -1     0     0   512   501  0.000000000E+00  0.000000000E+00  1.344662290E+02  1.344662290E+02  0.000000000E+00  0.00000E+00  9.000E+00
      21    -1     0     0   501   502  0.000000000E+00  0.000000000E+00 -6.601665777E+02  6.601665777E+02  0.000000000E+00  0.00000E+00  9.000E+00
      25     1     1     2     0     0  7.993930704E+01 -6.767179793E-01  5.574400870E+01  1.585028241E+02  1.250000000E+02  0.00000E+00  9.000E+00
      25     1     1     2     0     0 -1.099914262E+02  5.621864060E+00 -5.822983992E+02  6.056617413E+02  1.250000000E+02  0.00000E+00  9.000E+00
      21     1     1     2   512   502  3.005211912E+01 -4.945146080E+00  8.540418485E-01  3.046824118E+01  7.058810760E-07  0.00000E+00  9.000E+00
#rwgt            1           1   4.3963412307662861E-002           8      398199           0
</event>
<event>
      5   9999  3.79277E-02  2.95305E+01 -1.00000E+00  1.53517E-01
      21    -1     0     0   502   501  0.000000000E+00  0.000000000E+00  2.414551331E+02  2.414551331E+02  0.000000000E+00  0.00000E+00  9.000E+00
      21    -1     0     0   511   502  0.000000000E+00  0.000000000E+00 -2.417233208E+02  2.417233208E+02  0.000000000E+00  0.00000E+00  9.000E+00
      25     1     1     2     0     0  1.978489344E+01  1.497562644E+02  1.120289663E+02  2.258182234E+02  1.250000000E+02  0.00000E+00  9.000E+00
      25     1     1     2     0     0  8.589411348E+00 -1.579386856E+02 -9.251595929E+01  2.218166114E+02  1.250000000E+02  0.00000E+00  9.000E+00
      21     1     1     2   511   501 -2.837430478E+01  8.182421151E+00 -1.978119476E+01  3.554361903E+01  7.152557373E-07  0.00000E+00  9.000E+00
#rwgt            1           1   3.6539499113390224E-002           8      398337           0
</event>
<event>
      5   9999  3.79277E-02  1.28172E+02 -1.00000E+00  1.19166E-01
      21    -1     0     0   512   501  0.000000000E+00  0.000000000E+00  2.056521635E+03  2.056521635E+03  0.000000000E+00  0.00000E+00  9.000E+00
      21    -1     0     0   501   502  0.000000000E+00  0.000000000E+00 -1.243314614E+02  1.243314614E+02  0.000000000E+00  0.00000E+00  9.000E+00
      25     1     1     2     0     0  1.191355397E+02  1.022121966E+02  3.688395153E+01  2.040245961E+02  1.250000000E+02  0.00000E+00  9.000E+00
      25     1     1     2     0     0 -2.426639746E+02 -1.363992940E+02  5.807469211E+02  6.560354856E+02  1.250000000E+02  0.00000E+00  9.000E+00
      21     1     1     2   512   502  1.235284349E+02  3.418709734E+01  1.314559301E+03  1.320793015E+03  0.000000000E+00  0.00000E+00  9.000E+00
#rwgt            1           1   3.6744479987296859E-002           8      398440           0
</event>
<event>
      5   9999 -3.79277E-02  3.84656E+01 -1.00000E+00  1.45902E-01
      21    -1     0     0   502   501  0.000000000E+00  0.000000000E+00  4.097539880E+02  4.097539880E+02  0.000000000E+00  0.00000E+00  9.000E+00
      21    -1     0     0   501   511  0.000000000E+00  0.000000000E+00 -3.474977978E+02  3.474977978E+02  0.000000000E+00  0.00000E+00  9.000E+00
      25     1     1     2     0     0  3.079934183E+02  8.221159598E+01  4.211477496E+01  3.449889078E+02  1.250000000E+02  0.00000E+00  9.000E+00
      25     1     1     2     0     0 -3.412167924E+02 -6.282578420E+01  3.625010878E+01  3.705604525E+02  1.250000000E+02  0.00000E+00  9.000E+00
      21     1     1     2   502   511  3.322337412E+01 -1.938581178E+01 -1.610869346E+01  4.170242549E+01  6.307962682E-07  0.00000E+00  9.000E+00
#rwgt            1           1 -0.16891265403818137                8      398488           0
</event>
<event>
      5   9999  3.79277E-02  2.13679E+01 -1.00000E+00  1.64033E-01
      21    -1     0     0   502   501  0.000000000E+00  0.000000000E+00  2.265746721E+03  2.265746721E+03  0.000000000E+00  0.00000E+00  9.000E+00
      21    -1     0     0   501   512  0.000000000E+00  0.000000000E+00 -2.529932111E+01  2.529932111E+01  0.000000000E+00  0.00000E+00  9.000E+00
      25     1     1     2     0     0 -1.854135762E+02  5.255470526E+00  1.193342180E+03  1.214123705E+03  1.250000000E+02  0.00000E+00  9.000E+00
      25     1     1     2     0     0  1.871138612E+02 -2.655557145E+01  9.974839406E+02  1.022895893E+03  1.250000000E+02  0.00000E+00  9.000E+00
      21     1     1     2   502   512 -1.700284974E+00  2.130010092E+01  4.962127968E+01  5.402644413E+01  1.168007728E-06  0.00000E+00  9.000E+00
#rwgt            1           1  0.90470502906819439                8      398728           0
</event>
<event>
      5   9999  3.79277E-02  2.89052E+01 -1.00000E+00  1.54170E-01
      21    -1     0     0   502   501  0.000000000E+00  0.000000000E+00  5.069982380E+02  5.069982380E+02  0.000000000E+00  0.00000E+00  9.000E+00
      21    -1     0     0   501   511  0.000000000E+00  0.000000000E+00 -3.974746456E+02  3.974746456E+02  0.000000000E+00  0.00000E+00  9.000E+00
      25     1     1     2     0     0  2.819556665E+01 -1.700223893E+02  2.546983209E+02  3.319621025E+02  1.250000000E+02  0.00000E+00  9.000E+00
      25     1     1     2     0     0 -4.980568032E+01  1.508257393E+02  1.650445811E+02  2.609477404E+02  1.250000000E+02  0.00000E+00  9.000E+00
      21     1     1     2   502   511  2.161011367E+01  1.919664995E+01 -3.102193095E+02  3.115630408E+02  7.629394531E-06  0.00000E+00  9.000E+00
#rwgt            1           1   1.9047007695311050E-002           8      398983           0
</event>
<event>
      5   9999  3.79277E-02  8.17621E+01 -1.00000E+00  1.27893E-01
      21    -1     0     0   502   501  0.000000000E+00  0.000000000E+00  1.015520765E+02  1.015520765E+02  0.000000000E+00  0.00000E+00  9.000E+00
      21    -1     0     0   512   502  0.000000000E+00  0.000000000E+00 -7.942589384E+02  7.942589384E+02  0.000000000E+00  0.00000E+00  9.000E+00
      25     1     1     2     0     0  8.635625204E+00 -7.253376065E+01  2.621937006E+01  1.471331908E+02  1.250000000E+02  0.00000E+00  9.000E+00
      25     1     1     2     0     0 -3.845054072E+00 -9.087919197E+00 -4.819073525E+02  4.979528804E+02  1.250000000E+02  0.00000E+00  9.000E+00
      21     1     1     2   512   501 -4.790571132E+00  8.162167985E+01 -2.370188794E+02  2.507249437E+02  2.697398305E-06  0.00000E+00  9.000E+00
#rwgt            1           1   3.6774152893578597E-002           8      399131           0
</event>
<event>
      5   9999  3.79277E-02  3.45704E+01 -1.00000E+00  1.48882E-01
      21    -1     0     0   502   511  0.000000000E+00  0.000000000E+00  1.227900058E+02  1.227900058E+02  0.000000000E+00  0.00000E+00  9.000E+00
      21    -1     0     0   501   502  0.000000000E+00  0.000000000E+00 -4.289561400E+02  4.289561400E+02  0.000000000E+00  0.00000E+00  9.000E+00
      25     1     1     2     0     0  1.340016407E+02 -1.045069639E+02 -2.313222255E+02  3.130704668E+02  1.250000000E+02  0.00000E+00  9.000E+00
      25     1     1     2     0     0 -1.079406155E+02  8.179275920E+01 -8.455057161E+01  2.027684174E+02  1.250000000E+02  0.00000E+00  9.000E+00
      21     1     1     2   501   511 -2.606102525E+01  2.271420468E+01  9.706662815E+00  3.590726159E+01  2.665600750E-07  0.00000E+00  9.000E+00
#rwgt            1           1   3.4775735519607713E-002           8      399225           0
</event>
<event>
      5   9999  3.79277E-02  3.66624E+01 -1.00000E+00  1.47227E-01
      21    -1     0     0   512   501  0.000000000E+00  0.000000000E+00  3.185094598E+02  3.185094598E+02  0.000000000E+00  0.00000E+00  9.000E+00
      21    -1     0     0   501   502  0.000000000E+00  0.000000000E+00 -1.994731836E+02  1.994731836E+02  0.000000000E+00  0.00000E+00  9.000E+00
      25     1     1     2     0     0 -1.514204296E+02 -8.241829734E+01 -7.168150330E+01  2.246868046E+02  1.250000000E+02  0.00000E+00  9.000E+00
      25     1     1     2     0     0  1.154241606E+02  7.546135361E+01  1.573977631E+02  2.437544021E+02  1.250000000E+02  0.00000E+00  9.000E+00
      21     1     1     2   512   502  3.599626905E+01  6.956943730E+00  3.332001644E+01  4.954143667E+01  0.000000000E+00  0.00000E+00  9.000E+00
#rwgt            1           1   2.5475909491040546E-002           8      399277           0
</event>
<event>
      5   9999  3.79277E-02  6.76503E+01 -1.00000E+00  1.31976E-01
      21    -1     0     0   502   501  0.000000000E+00  0.000000000E+00  1.398257567E+03  1.398257567E+03  0.000000000E+00  0.00000E+00  9.000E+00
      21    -1     0     0   501   511  0.000000000E+00  0.000000000E+00 -9.006460324E+01  9.006460324E+01  0.000000000E+00  0.00000E+00  9.000E+00
      25     1     1     2     0     0  1.266938553E+02  2.392509670E+02  2.759787187E+02  4.063023644E+02  1.250000000E+02  0.00000E+00  9.000E+00
      25     1     1     2     0     0 -7.790524966E+01 -1.923869130E+02  9.164444680E+02  9.479332335E+02  1.250000000E+02  0.00000E+00  9.000E+00
      21     1     1     2   502   511 -4.878860565E+01 -4.686405394E+01  1.157697770E+02  1.340865722E+02  0.000000000E+00  0.00000E+00  9.000E+00
#rwgt            2          11   3.4462151966762181E-003           8      399429           0
</event>
<event>
      5   9999  3.79277E-02  1.22898E+02 -1.00000E+00  1.19930E-01
      21    -1     0     0   502   501  0.000000000E+00  0.000000000E+00  8.312463574E+01  8.312463574E+01  0.000000000E+00  0.00000E+00  9.000E+00
       1    -1     0     0   501     0  0.000000000E+00  0.000000000E+00 -2.066251813E+03  2.066251813E+03  0.000000000E+00  0.00000E+00  9.000E+00
      25     1     1     2     0     0 -1.653272967E+02 -2.605196300E+02 -5.758892673E+02  6.651894774E+02  1.250000000E+02  0.00000E+00  9.000E+00
      25     1     1     2     0     0  5.763969893E+01  3.197416881E+02 -1.074111463E+03  1.129113598E+03  1.250000000E+02  0.00000E+00  9.000E+00
       1     1     1     2   502     0  1.076875977E+02 -5.922205814E+01 -3.331264473E+02  3.550733738E+02  3.814697266E-06  0.00000E+00  9.000E+00
#rwgt            1           1   2.6203987015549667E-002           8      399449           0
</event>
<event>
      5   9999  3.79277E-02  3.23586E+01 -1.00000E+00  1.50791E-01
      21    -1     0     0   511   501  0.000000000E+00  0.000000000E+00  1.908325499E+02  1.908325499E+02  0.000000000E+00  0.00000E+00  9.000E+00
      21    -1     0     0   501   502  0.000000000E+00  0.000000000E+00 -3.035228101E+02  3.035228101E+02  0.000000000E+00  0.00000E+00  9.000E+00
      25     1     1     2     0     0  6.121505101E+01 -8.444705650E+01 -1.628373721E+02  2.302598479E+02  1.250000000E+02  0.00000E+00  9.000E+00
      25     1     1     2     0     0 -8.292442529E+01  6.045156577E+01 -4.144644728E+01  1.669540659E+02  1.250000000E+02  0.00000E+00  9.000E+00
      21     1     1     2   511   502  2.170937427E+01  2.399549073E+01  9.159355915E+01  9.714144627E+01  1.348699152E-06  0.00000E+00  9.000E+00
#rwgt            1           1   4.6208392875015498E-002           8      399535           0
</event>
<event>
      5   9999  3.79277E-02  2.93085E+01 -1.00000E+00  1.53747E-01
      21    -1     0     0   502   501  0.000000000E+00  0.000000000E+00  5.564824574E+02  5.564824574E+02  0.000000000E+00  0.00000E+00  9.000E+00
      21    -1     0     0   512   502  0.000000000E+00  0.000000000E+00 -9.844713515E+01  9.844713515E+01  0.000000000E+00  0.00000E+00  9.000E+00
      25     1     1     2     0     0  1.153315080E+02 -1.038730290E+02  2.680858879E+02  3.340449164E+02  1.250000000E+02  0.00000E+00  9.000E+00
      25     1     1     2     0     0 -1.434461520E+02  1.121526451E+02  1.903550488E+02  2.915734194E+02  1.250000000E+02  0.00000E+00  9.000E+00
      21     1     1     2   512   501  2.811464398E+01 -8.279616068E+00 -4.056143897E-01  2.931125674E+01  5.990887649E-07  0.00000E+00  9.000E+00
#rwgt            1           1  0.13667770971904233                8      399694           0
</event>
<event>
      5   9999  3.79277E-02  1.81532E+01 -1.00000E+00  1.69917E-01
      21    -1     0     0   502   501  0.000000000E+00  0.000000000E+00  1.520223502E+03  1.520223502E+03  0.000000000E+00  0.00000E+00  9.000E+00
      21    -1     0     0   501   511  0.000000000E+00  0.000000000E+00 -1.713345032E+02  1.713345032E+02  0.000000000E+00  0.00000E+00  9.000E+00
      25     1     1     2     0     0 -1.142121115E+02 -2.309925484E+01  1.151086841E+03  1.163702667E+03  1.250000000E+02  0.00000E+00  9.000E+00
      25     1     1     2     0     0  1.058286647E+02  3.920067865E+01  3.426899359E+02  3.818347701E+02  1.250000000E+02  0.00000E+00  9.000E+00
      21     1     1     2   502   511  8.383446754E+00 -1.610142380E+01 -1.448877781E+02  1.460205680E+02  0.000000000E+00  0.00000E+00  9.000E+00
#rwgt            1           1   4.4464010472091899E-002           8      399792           0
</event>
<event>
      5   9999  3.79277E-02  2.96799E+01 -1.00000E+00  1.53364E-01
      21    -1     0     0   502   501  0.000000000E+00  0.000000000E+00  6.205514547E+02  6.205514547E+02  0.000000000E+00  0.00000E+00  9.000E+00
      21    -1     0     0   501   512  0.000000000E+00  0.000000000E+00 -2.395346284E+02  2.395346284E+02  0.000000000E+00  0.00000E+00  9.000E+00
      25     1     1     2     0     0  1.793142705E+02 -7.239084871E+01  4.430612051E+02  4.993218141E+02  1.250000000E+02  0.00000E+00  9.000E+00
      25     1     1     2     0     0 -2.072992036E+02  8.227734428E+01  3.612144129E+01  2.582097592E+02  1.250000000E+02  0.00000E+00  9.000E+00
      21     1     1     2   502   512  2.798493316E+01 -9.886495568E+00 -9.816582003E+01  1.025545099E+02  1.348699152E-06  0.00000E+00  9.000E+00
#rwgt            1           1   3.5674020450496967E-002           8      400319           0
</event>
<event>
      5   9999 -3.79277E-02  4.93899E+01 -1.00000E+00  1.39380E-01
      21    -1     0     0   502   501  0.000000000E+00  0.000000000E+00  1.173173198E+03  1.173173198E+03  0.000000000E+00  0.00000E+00  9.000E+00
      21    -1     0     0   501   511  0.000000000E+00  0.000000000E+00 -6.957644376E+01  6.957644376E+01  0.000000000E+00  0.00000E+00  9.000E+00
      25     1     1     2     0     0 -1.588747821E+02 -1.279598170E+02  7.333296868E+02  7.713704302E+02  1.250000000E+02  0.00000E+00  9.000E+00
      25     1     1     2     0     0  1.145597666E+02  1.061528026E+02  3.715423166E+02  4.219728079E+02  1.250000000E+02  0.00000E+00  9.000E+00
      21     1     1     2   502   511  4.431501556E+01  2.180701437E+01 -1.275248876E+00  4.940640383E+01  9.680021864E-07  0.00000E+00  9.000E+00
#rwgt            1           1  -3.1526368661190948E-002           8      400454           0
</event>
<event>
      5   9999  3.79277E-02  1.86857E+01 -1.00000E+00  1.68842E-01
      -4    -1     0     0     0   501  0.000000000E+00  0.000000000E+00  1.680914907E+02  1.680914907E+02  0.000000000E+00  0.00000E+00  9.000E+00
      21    -1     0     0   501   502  0.000000000E+00  0.000000000E+00 -3.746264597E+02  3.746264597E+02  0.000000000E+00  0.00000E+00  9.000E+00
      25     1     1     2     0     0  1.285946427E+02 -1.138254356E+02 -1.316069795E+02  2.498763873E+02  1.250000000E+02  0.00000E+00  9.000E+00
      25     1     1     2     0     0 -1.404114249E+02  1.283002187E+02 -1.102390906E+02  2.528912246E+02  1.250000000E+02  0.00000E+00  9.000E+00
      -4     1     1     2     0   502  1.181678222E+01 -1.447478318E+01  3.531110098E+01  3.995033845E+01  6.743495762E-07  0.00000E+00  9.000E+00
#rwgt            1           1   3.7961179529908136E-002           8      400520           0
</event>
<event>
      5   9999  3.79277E-02  4.40809E+01 -1.00000E+00  1.42271E-01
      21    -1     0     0   511   501  0.000000000E+00  0.000000000E+00  4.562295142E+01  4.562295142E+01  0.000000000E+00  0.00000E+00  9.000E+00
      21    -1     0     0   501   502  0.000000000E+00  0.000000000E+00 -9.450522909E+02  9.450522909E+02  0.000000000E+00  0.00000E+00  9.000E+00
      25     1     1     2     0     0  2.605600146E+01 -1.047533823E+01 -1.049260399E+02  1.655992807E+02  1.250000000E+02  0.00000E+00  9.000E+00
      25     1     1     2     0     0 -4.249208021E+01 -3.042672803E+01 -7.510703053E+02  7.631926141E+02  1.250000000E+02  0.00000E+00  9.000E+00
      21     1     1     2   511   502  1.643607875E+01  4.090206626E+01 -4.343299424E+01  6.188334750E+01  6.743495762E-07  0.00000E+00  9.000E+00
#rwgt            1           1   3.6461765033907093E-002           8      400706           0
</event>
<event>
      5   9999  3.79277E-02  1.67193E+01 -1.00000E+00  1.73056E-01
      21    -1     0     0   512   501  0.000000000E+00  0.000000000E+00  5.754494836E+02  5.754494836E+02  0.000000000E+00  0.00000E+00  9.000E+00
      21    -1     0     0   501   502  0.000000000E+00  0.000000000E+00 -1.012382845E+02  1.012382845E+02  0.000000000E+00  0.00000E+00  9.000E+00
      25     1     1     2     0     0 -1.221157683E+02 -8.488105528E+01  3.575022893E+02  4.068782881E+02  1.250000000E+02  0.00000E+00  9.000E+00
      25     1     1     2     0     0  1.384884077E+02  8.149399202E+01  6.231625038E+01  2.129052016E+02  1.250000000E+02  0.00000E+00  9.000E+00
      21     1     1     2   512   502 -1.637263941E+01  3.387063261E+00  5.439265937E+01  5.690427850E+01  6.743495762E-07  0.00000E+00  9.000E+00
#rwgt            1           1   4.0890705370048887E-002           8      400927           0
</event>
<event>
      5   9999  3.79277E-02  5.67831E+01 -1.00000E+00  1.35995E-01
      21    -1     0     0   502   501  0.000000000E+00  0.000000000E+00  1.277682361E+02  1.277682361E+02  0.000000000E+00  0.00000E+00  9.000E+00
      21    -1     0     0   501   511  0.000000000E+00  0.000000000E+00 -5.614397980E+02  5.614397980E+02  0.000000000E+00  0.00000E+00  9.000E+00
      25     1     1     2     0     0 -1.603072356E+01 -1.743587258E+02 -1.279586580E+02  2.503125397E+02  1.250000000E+02  0.00000E+00  9.000E+00
      25     1     1     2     0     0 -1.515893638E+01  2.218089390E+02 -2.244074028E+02  3.397244195E+02  1.250000000E+02  0.00000E+00  9.000E+00
      21     1     1     2   502   511  3.118965994E+01 -4.745021319E+01 -8.130550103E+01  9.917107500E+01  0.000000000E+00  0.00000E+00  9.000E+00
#rwgt            1           1   3.0057181299038192E-002           8      401133           0
</event>
<event>
      5   9999  3.79277E-02  6.09379E+01 -1.00000E+00  1.34344E-01
      21    -1     0     0   502   512  0.000000000E+00  0.000000000E+00  8.833128972E+02  8.833128972E+02  0.000000000E+00  0.00000E+00  9.000E+00
      21    -1     0     0   501   502  0.000000000E+00  0.000000000E+00 -6.751970820E+01  6.751970820E+01  0.000000000E+00  0.00000E+00  9.000E+00
      25     1     1     2     0     0  1.309550490E+01 -1.372541097E+02  3.471072306E+02  3.938510028E+02  1.250000000E+02  0.00000E+00  9.000E+00
      25     1     1     2     0     0 -7.180397582E+01  1.535862681E+02  2.354720007E+02  3.159376771E+02  1.250000000E+02  0.00000E+00  9.000E+00
      21     1     1     2   501   512  5.870847091E+01 -1.633215842E+01  2.332139577E+02  2.410439255E+02  2.697398305E-06  0.00000E+00  9.000E+00
#rwgt            1           1   4.7869191141205004E-002           8      401214           0
</event>
<event>
      5   9999  3.79277E-02  1.34736E+02 -1.00000E+00  1.18271E-01
      21    -1     0     0   502   501  0.000000000E+00  0.000000000E+00  4.923536853E+02  4.923536853E+02  0.000000000E+00  0.00000E+00  9.000E+00
      21    -1     0     0   501   511  0.000000000E+00  0.000000000E+00 -1.703632514E+02  1.703632514E+02  0.000000000E+00  0.00000E+00  9.000E+00
      25     1     1     2     0     0  7.863819475E+01 -1.418721013E+02  3.140200620E+02  3.748936625E+02  1.250000000E+02  0.00000E+00  9.000E+00
      25     1     1     2     0     0 -8.693125497E+01  7.391882856E+00 -4.577654274E+00  1.525045506E+02  1.250000000E+02  0.00000E+00  9.000E+00
      21     1     1     2   502   511  8.293060219E+00  1.344802185E+02  1.254802610E+01  1.353187236E+02  1.039242493E-06  0.00000E+00  9.000E+00
#rwgt            1           1   3.6022518872516798E-002           8      401363           0
</event>
<event>
      5   9999  3.79277E-02  2.45690E+01 -1.00000E+00  1.59319E-01
      21    -1     0     0   502   501  0.000000000E+00  0.000000000E+00  5.895622134E+02  5.895622134E+02  0.000000000E+00  0.00000E+00  9.000E+00
      21    -1     0     0   512   502  0.000000000E+00  0.000000000E+00 -1.143855452E+02  1.143855452E+02  0.000000000E+00  0.00000E+00  9.000E+00
      25     1     1     2     0     0 -1.072525395E+02 -6.707117091E+01 -5.502311370E+00  1.779239293E+02  1.250000000E+02  0.00000E+00  9.000E+00
      25     1     1     2     0     0  8.326333953E+01  6.176527380E+01  4.732775245E+02  5.003642153E+02  1.250000000E+02  0.00000E+00  9.000E+00
      21     1     1     2   512   501  2.398919993E+01  5.305897106E+00  7.401455105E+00  2.565961408E+01  2.795705652E-07  0.00000E+00  9.000E+00
#rwgt            1           1   4.0114899933822369E-002           8      401559           0
</event>
<event>
      5   9999  3.79277E-02  2.42032E+01 -1.00000E+00  1.59812E-01
      21    -1     0     0   511   501  0.000000000E+00  0.000000000E+00  1.882134251E+02  1.882134251E+02  0.000000000E+00  0.00000E+00  9.000E+00
      21    -1     0     0   501   502  0.000000000E+00  0.000000000E+00 -4.272056890E+02  4.272056890E+02  0.000000000E+00  0.00000E+00  9.000E+00
      25     1     1     2     0     0 -8.923523904E+00 -2.222527820E+02 -7.196358607E+01  2.651031613E+02  1.250000000E+02  0.00000E+00  9.000E+00
      25     1     1     2     0     0  2.887967695E+01  2.359476076E+02 -1.795544099E+02  3.230636088E+02  1.250000000E+02  0.00000E+00  9.000E+00
      21     1     1     2   511   502 -1.995615305E+01 -1.369482555E+01  1.252573198E+01  2.725234399E+01  5.840038640E-07  0.00000E+00  9.000E+00
#rwgt            1           1   4.1121624434821591E-002           8      402013           0
</event>
<event>
      5   9999  3.79277E-02  1.09287E+02 -1.00000E+00  1.22118E-01
      21    -1     0     0   512   501  0.000000000E+00  0.000000000E+00  1.353908876E+02  1.353908876E+02  0.000000000E+00  0.00000E+00  9.000E+00
      21    -1     0     0   501   502  0.000000000E+00  0.000000000E+00 -9.492901946E+02  9.492901946E+02  0.000000000E+00  0.00000E+00  9.000E+00
      25     1     1     2     0     0  9.652176900E+01  8.029992571E+01 -5.701338404E+02  5.970277430E+02  1.250000000E+02  0.00000E+00  9.000E+00
      25     1     1     2     0     0 -1.747449233E+02 -3.979781729E+00 -2.966020918E+02  3.662641502E+02  1.250000000E+02  0.00000E+00  9.000E+00
      21     1     1     2   512   502  7.822315431E+01 -7.632014398E+01  5.283662516E+01  1.213891890E+02  2.132480600E-06  0.00000E+00  9.000E+00
#rwgt            2          11   2.6897079666181375E-003           8      402240           0
</event>
<event>
      5   9999  3.79277E-02  3.16255E+01 -1.00000E+00  1.51465E-01
      21    -1     0     0   502   511  0.000000000E+00  0.000000000E+00  8.326808631E+02  8.326808631E+02  0.000000000E+00  0.00000E+00  9.000E+00
      21    -1     0     0   501   502  0.000000000E+00  0.000000000E+00 -3.020262308E+02  3.020262308E+02  0.000000000E+00  0.00000E+00  9.000E+00
      25     1     1     2     0     0  2.400194915E+02  9.564879806E+01  1.103702426E+02  3.075136409E+02  1.250000000E+02  0.00000E+00  9.000E+00
      25     1     1     2     0     0 -2.712189314E+02 -9.047493554E+01 -8.301921610E+01  3.228972173E+02  1.250000000E+02  0.00000E+00  9.000E+00
      21     1     1     2   501   511  3.119943989E+01 -5.173862525E+00  5.033036057E+02  5.042962358E+02  0.000000000E+00  0.00000E+00  9.000E+00
#rwgt            1           1   2.9567075913287673E-002           8      402305           0
</event>
<event>
      5   9999  3.79277E-02  1.06927E+02 -1.00000E+00  1.22534E-01
      21    -1     0     0   512   501  0.000000000E+00  0.000000000E+00  6.367804638E+02  6.367804638E+02  0.000000000E+00  0.00000E+00  9.000E+00
      21    -1     0     0   501   502  0.000000000E+00  0.000000000E+00 -2.947249936E+02  2.947249936E+02  0.000000000E+00  0.00000E+00  9.000E+00
      25     1     1     2     0     0 -8.230667742E+01 -2.136401027E+02 -1.181043016E+02  2.863391498E+02  1.250000000E+02  0.00000E+00  9.000E+00
      25     1     1     2     0     0  5.268147462E+01  3.163807323E+02  3.318573121E+02  4.781489110E+02  1.250000000E+02  0.00000E+00  9.000E+00
      21     1     1     2   512   502  2.962520279E+01 -1.027406295E+02  1.283024597E+02  1.670173966E+02  1.907348633E-06  0.00000E+00  9.000E+00
#rwgt            1           1   4.3569495022911832E-002           8      402565           0
</event>
<event>
      5   9999  3.79277E-02  2.74834E+01 -1.00000E+00  1.55731E-01
      21    -1     0     0   511   501  0.000000000E+00  0.000000000E+00  6.582033043E+02  6.582033043E+02  0.000000000E+00  0.00000E+00  9.000E+00
      21    -1     0     0   501   502  0.000000000E+00  0.000000000E+00 -1.436426431E+02  1.436426431E+02  0.000000000E+00  0.00000E+00  9.000E+00
      25     1     1     2     0     0 -9.456214547E+01  1.195289536E+02  7.629808855E+01  2.113659585E+02  1.250000000E+02  0.00000E+00  9.000E+00
      25     1     1     2     0     0  6.749560134E+01 -1.242974591E+02  4.214246276E+01  1.934076051E+02  1.250000000E+02  0.00000E+00  9.000E+00
      21     1     1     2   511   502  2.706654413E+01  4.768505496E+00  3.961201100E+02  3.970723838E+02  5.394796609E-06  0.00000E+00  9.000E+00
#rwgt            1           1  0.12721461502620793                8      402659           0
</event>
<event>
      5   9999  3.79277E-02  1.06063E+02 -1.00000E+00  1.22689E-01
      21    -1     0     0   502   501  0.000000000E+00  0.000000000E+00  1.179001652E+03  1.179001652E+03  0.000000000E+00  0.00000E+00  9.000E+00
      21    -1     0     0   501   512  0.000000000E+00  0.000000000E+00 -1.276315950E+02  1.276315950E+02  0.000000000E+00  0.00000E+00  9.000E+00
      25     1     1     2     0     0  1.765077327E+02 -1.056602647E+02  1.243620756E+02  2.709427930E+02  1.250000000E+02  0.00000E+00  9.000E+00
      25     1     1     2     0     0 -2.757521671E+02  1.430757089E+02  8.165923536E+02  8.825859664E+02  1.250000000E+02  0.00000E+00  9.000E+00
      21     1     1     2   502   512  9.924443442E+01 -3.741544416E+01  1.104156274E+02  1.531044872E+02  0.000000000E+00  0.00000E+00  9.000E+00
#rwgt            2          11   3.5498527645544532E-003           8      402798           0
</event>
<event>
      5   9999  3.79277E-02  4.48661E+01 -1.00000E+00  1.41814E-01
      21    -1     0     0   502   511  0.000000000E+00  0.000000000E+00  1.571575369E+02  1.571575369E+02  0.000000000E+00  0.00000E+00  9.000E+00
      21    -1     0     0   501   502  0.000000000E+00  0.000000000E+00 -3.336813390E+02  3.336813390E+02  0.000000000E+00  0.00000E+00  9.000E+00
      25     1     1     2     0     0 -3.587911643E+01 -1.470184573E+02 -3.420105315E+01  1.992396793E+02  1.250000000E+02  0.00000E+00  9.000E+00
      25     1     1     2     0     0 -4.559779693E+00  1.664520417E+02 -1.284136417E+02  2.446265259E+02  1.250000000E+02  0.00000E+00  9.000E+00
      21     1     1     2   501   511  4.043889612E+01 -1.943358440E+01 -1.390910733E+01  4.697267066E+01  2.920019320E-07  0.00000E+00  9.000E+00
#rwgt            1           1   3.3205264873929004E-002           8      402818           0
</event>
<event>
      5   9999  3.79277E-02  4.42655E+01 -1.00000E+00  1.42163E-01
      21    -1     0     0   502   501  0.000000000E+00  0.000000000E+00  4.469949156E+01  4.469949156E+01  0.000000000E+00  0.00000E+00  9.000E+00
      21    -1     0     0   501   512  0.000000000E+00  0.000000000E+00 -1.345460863E+03  1.345460863E+03  0.000000000E+00  0.00000E+00  9.000E+00
      25     1     1     2     0     0 -2.114855753E+01  1.264757980E+02 -9.135709353E+02  9.309566277E+02  1.250000000E+02  0.00000E+00  9.000E+00
      25     1     1     2     0     0  6.416806436E+01 -1.160473281E+02 -2.170942724E+02  2.834421387E+02  1.250000000E+02  0.00000E+00  9.000E+00
      21     1     1     2   502   512 -4.301950683E+01 -1.042846990E+01 -1.700961637E+02  1.757615881E+02  3.303624740E-06  0.00000E+00  9.000E+00
#rwgt            1           1   4.5881310678921199E-002           8      402954           0
</event>
<event>
      5   9999  3.79277E-02  4.48756E+01 -1.00000E+00  1.41809E-01
      21    -1     0     0   502   511  0.000000000E+00  0.000000000E+00  1.759158137E+02  1.759158137E+02  0.000000000E+00  0.00000E+00  9.000E+00
      21    -1     0     0   501   502  0.000000000E+00  0.000000000E+00 -5.914248682E+02  5.914248682E+02  0.000000000E+00  0.00000E+00  9.000E+00
      25     1     1     2     0     0 -1.534719731E+02  1.106632386E+02 -1.526406258E+01  2.272839425E+02  1.250000000E+02  0.00000E+00  9.000E+00
      25     1     1     2     0     0  1.252790945E+02 -7.574929389E+01 -4.398960763E+02  4.801732656E+02  1.250000000E+02  0.00000E+00  9.000E+00
      21     1     1     2   501   511  2.819287860E+01 -3.491394475E+01  3.965108443E+01  5.988347383E+01  1.066240300E-06  0.00000E+00  9.000E+00
#rwgt            1           1   9.6547785497028936E-003           8      403130           0
</event>
<event>
      5   9999  3.79277E-02  1.56455E+02 -1.00000E+00  1.15673E-01
      21    -1     0     0   502   501  0.000000000E+00  0.000000000E+00  7.112014929E+02  7.112014929E+02  0.000000000E+00  0.00000E+00  9.000E+00
      -2    -1     0     0     0   502  0.000000000E+00  0.000000000E+00 -6.533913523E+02  6.533913523E+02  0.000000000E+00  0.00000E+00  9.000E+00
      25     1     1     2     0     0  1.975956235E+02 -3.183475543E+02  1.789767882E+02  4.336437322E+02  1.250000000E+02  0.00000E+00  9.000E+00
      25     1     1     2     0     0 -3.138180608E+02  2.136075073E+02  2.881750099E+02  4.927268805E+02  1.250000000E+02  0.00000E+00  9.000E+00
      -2     1     1     2     0   501  1.162224372E+02  1.047400470E+02 -4.093416576E+02  4.382222324E+02  0.000000000E+00  0.00000E+00  9.000E+00
#rwgt            1           1   4.8752995964912615E-002           8      403273           0
</event>
<event>
      5   9999  3.79277E-02  8.73386E+01 -1.00000E+00  1.26531E-01
      21    -1     0     0   502   501  0.000000000E+00  0.000000000E+00  1.263229561E+03  1.263229561E+03  0.000000000E+00  0.00000E+00  9.000E+00
      21    -1     0     0   501   511  0.000000000E+00  0.000000000E+00 -1.296202521E+03  1.296202521E+03  0.000000000E+00  0.00000E+00  9.000E+00
      25     1     1     2     0     0 -1.311436859E+02 -2.068568251E+02  1.031595807E+02  2.936925459E+02  1.250000000E+02  0.00000E+00  9.000E+00
      25     1     1     2     0     0  2.041783109E+02  1.589613120E+02  1.043770893E+03  1.082608036E+03  1.250000000E+02  0.00000E+00  9.000E+00
      21     1     1     2   502   511 -7.303462500E+01  4.789551310E+01 -1.179903433E+03  1.183131501E+03  2.157918644E-05  0.00000E+00  9.000E+00
#rwgt            1           1   3.3567848987402844E-002           8      403353           0
</event>
<event>
      5   9999  3.79277E-02  4.69254E+01 -1.00000E+00  1.40667E-01
      21    -1     0     0   502   501  0.000000000E+00  0.000000000E+00  3.536099644E+02  3.536099644E+02  0.000000000E+00  0.00000E+00  9.000E+00
      21    -1     0     0   501   512  0.000000000E+00  0.000000000E+00 -1.355787815E+02  1.355787815E+02  0.000000000E+00  0.00000E+00  9.000E+00
      25     1     1     2     0     0  8.589090170E+01  6.017361154E+01  3.964490889E+01  1.679131601E+02  1.250000000E+02  0.00000E+00  9.000E+00
      25     1     1     2     0     0 -1.202409343E+02 -9.214337844E+01  1.896461291E+02  2.730182022E+02  1.250000000E+02  0.00000E+00  9.000E+00
      21     1     1     2   502   512  3.435003258E+01  3.196976689E+01 -1.125985516E+01  4.825738360E+01  7.052516679E-07  0.00000E+00  9.000E+00
#rwgt            1           1   3.1742247091233002E-002           8      403409           0
</event>
<event>
      5   9999  3.79277E-02  6.31627E+02 -1.00000E+00  9.60518E-02
      21    -1     0     0   502   501  0.000000000E+00  0.000000000E+00  7.345747045E+02  7.345747045E+02  0.000000000E+00  0.00000E+00  9.000E+00
       1    -1     0     0   501     0  0.000000000E+00  0.000000000E+00 -8.470197946E+02  8.470197946E+02  0.000000000E+00  0.00000E+00  9.000E+00
      25     1     1     2     0     0 -1.315188372E+02 -5.000562030E+02  1.924647733E+02  5.657040743E+02  1.250000000E+02  0.00000E+00  9.000E+00
      25     1     1     2     0     0  1.944295415E+02 -1.284302318E+02  7.994798869E+01  2.762496189E+02  1.250000000E+02  0.00000E+00  9.000E+00
       1     1     1     2   502     0 -6.291070429E+01  6.284864348E+02 -3.848578521E+02  7.396408059E+02  5.394796609E-06  0.00000E+00  9.000E+00
#rwgt            2          12   2.2629399097919859E-005           8      403573           0
</event>
<event>
      5   9999  3.79277E-02  2.68608E+01 -1.00000E+00  1.56450E-01
      21    -1     0     0   502   511  0.000000000E+00  0.000000000E+00  1.265275432E+03  1.265275432E+03  0.000000000E+00  0.00000E+00  9.000E+00
      21    -1     0     0   501   502  0.000000000E+00  0.000000000E+00 -1.839108071E+02  1.839108071E+02  0.000000000E+00  0.00000E+00  9.000E+00
      25     1     1     2     0     0  1.501482614E+02 -7.920259634E+01  5.540397891E+01  2.179728252E+02  1.250000000E+02  0.00000E+00  9.000E+00
      25     1     1     2     0     0 -1.686681877E+02  5.974720170E+01  1.381465620E+01  2.187110660E+02  1.250000000E+02  0.00000E+00  9.000E+00
      21     1     1     2   501   511  1.851992632E+01  1.945539464E+01  1.012145990E+03  1.012502348E+03  1.078959322E-05  0.00000E+00  9.000E+00
#rwgt            1           1   2.1751891464899233E-002           8      403727           0
</event>
<event>
      5   9999  3.79277E-02  3.39261E+01 -1.00000E+00  1.49420E-01
      21    -1     0     0   502   512  0.000000000E+00  0.000000000E+00  2.674454951E+02  2.674454951E+02  0.000000000E+00  0.00000E+00  9.000E+00
      21    -1     0     0   501   502  0.000000000E+00  0.000000000E+00 -7.502634253E+02  7.502634253E+02  0.000000000E+00  0.00000E+00  9.000E+00
      25     1     1     2     0     0 -3.281927497E+02 -2.329667300E+02 -2.188180291E+02  4.748581979E+02  1.250000000E+02  0.00000E+00  9.000E+00
      25     1     1     2     0     0  3.026130379E+02  2.552525829E+02 -2.844342885E+02  5.032458607E+02  1.250000000E+02  0.00000E+00  9.000E+00
      21     1     1     2   501   512  2.557971178E+01 -2.228585289E+01  2.043438734E+01  3.960486182E+01  0.000000000E+00  0.00000E+00  9.000E+00
#rwgt            1           1   3.0848751836257141E-002           8      403849           0
</event>
<event>
      5   9999  3.79277E-02  4.49328E+01 -1.00000E+00  1.41776E-01
      21    -1     0     0   511   501  0.000000000E+00  0.000000000E+00  1.191813403E+03  1.191813403E+03  0.000000000E+00  0.00000E+00  9.000E+00
      21    -1     0     0   501   502  0.000000000E+00  0.000000000E+00 -1.332285836E+02  1.332285836E+02  0.000000000E+00  0.00000E+00  9.000E+00
      25     1     1     2     0     0  1.610707978E+02  5.167081835E+01  5.294192139E+01  2.168905771E+02  1.250000000E+02  0.00000E+00  9.000E+00
      25     1     1     2     0     0 -1.667848787E+02 -9.623884890E+01  2.096689724E+02  3.109102600E+02  1.250000000E+02  0.00000E+00  9.000E+00
      21     1     1     2   511   502  5.714080892E+00  4.456803054E+01  7.959739258E+02  7.972411497E+02  1.078959322E-05  0.00000E+00  9.000E+00
#rwgt            2          11   8.5826538847285684E-004           8      404101           0
</event>
<event>
      5   9999  3.79277E-02  1.18857E+01 -1.00000E+00  1.87466E-01
      21    -1     0     0   502   501  0.000000000E+00  0.000000000E+00  1.165287755E+02  1.165287755E+02  0.000000000E+00  0.00000E+00  9.000E+00
      21    -1     0     0   501   512  0.000000000E+00  0.000000000E+00 -3.566512214E+02  3.566512214E+02  0.000000000E+00  0.00000E+00  9.000E+00
      25     1     1     2     0     0 -9.674096969E-02  8.421625447E+01 -2.268550442E+02  2.723611535E+02  1.250000000E+02  0.00000E+00  9.000E+00
      25     1     1     2     0     0 -1.068453382E+01 -8.921964886E+01  2.922516024E+01  1.566952935E+02  1.250000000E+02  0.00000E+00  9.000E+00
      21     1     1     2   502   512  1.078127479E+01  5.003394399E+00 -4.249256193E+01  4.412354996E+01  4.768371582E-07  0.00000E+00  9.000E+00
#rwgt            1           1   4.5400746183219771E-002           8      404226           0
</event>
<event>
      5   9999  3.79277E-02  5.44608E+01 -1.00000E+00  1.36991E-01
      21    -1     0     0   502   511  0.000000000E+00  0.000000000E+00  2.123491650E+03  2.123491650E+03  0.000000000E+00  0.00000E+00  9.000E+00
      21    -1     0     0   501   502  0.000000000E+00  0.000000000E+00 -2.849457886E+01  2.849457886E+01  0.000000000E+00  0.00000E+00  9.000E+00
      25     1     1     2     0     0 -3.449689563E+01  1.898790620E+02  8.351278160E+02  8.662029572E+02  1.250000000E+02  0.00000E+00  9.000E+00
      25     1     1     2     0     0  5.150237369E+01 -1.381413182E+02  8.157238329E+02  8.383113323E+02  1.250000000E+02  0.00000E+00  9.000E+00
      21     1     1     2   501   511 -1.700547806E+01 -5.173774385E+01  4.441454223E+02  4.474719394E+02  5.394796609E-06  0.00000E+00  9.000E+00
#rwgt            1           1   4.3301200905800016E-002           8      404664           0
</event>
<event>
      5   9999  3.79277E-02  6.05330E+01 -1.00000E+00  1.34498E-01
      21    -1     0     0   502   501  0.000000000E+00  0.000000000E+00  3.880983551E+02  3.880983551E+02  0.000000000E+00  0.00000E+00  9.000E+00
      21    -1     0     0   512   502  0.000000000E+00  0.000000000E+00 -1.737158521E+02  1.737158521E+02  0.000000000E+00  0.00000E+00  9.000E+00
      25     1     1     2     0     0 -1.149766516E+02  7.079631030E+01  2.556977997E+02  3.150208132E+02  1.250000000E+02  0.00000E+00  9.000E+00
      25     1     1     2     0     0  1.224982942E+02 -1.073246373E+01 -5.679211155E+01  1.843132166E+02  1.250000000E+02  0.00000E+00  9.000E+00
      21     1     1     2   512   501 -7.521642642E+00 -6.006384658E+01  1.547681485E+01  6.248017743E+01  7.907449699E-07  0.00000E+00  9.000E+00
#rwgt            1           1   3.5417645969154879E-002           8      404716           0
</event>
<event>
      5   9999  3.79277E-02  5.51851E+01 -1.00000E+00  1.36674E-01
      21    -1     0     0   502   501  0.000000000E+00  0.000000000E+00  1.615117451E+02  1.615117451E+02  0.000000000E+00  0.00000E+00  9.000E+00
      21    -1     0     0   501   511  0.000000000E+00  0.000000000E+00 -5.456925351E+02  5.456925351E+02  0.000000000E+00  0.00000E+00  9.000E+00
      25     1     1     2     0     0  6.505187223E+01 -2.176546358E+02 -2.904062197E+02  3.893148584E+02  1.250000000E+02  0.00000E+00  9.000E+00
      25     1     1     2     0     0 -8.176125517E+01  1.650600784E+02 -1.688836050E+01  2.232486261E+02  1.250000000E+02  0.00000E+00  9.000E+00
      21     1     1     2   502   511  1.670938294E+01  5.259455741E+01 -7.688620981E+01  9.464079567E+01  9.536743164E-07  0.00000E+00  9.000E+00
#rwgt            1           1   6.3385601688562734E-002           8      404833           0
</event>
<event>
      5   9999  3.79277E-02  1.00132E+02 -1.00000E+00  1.23802E-01
      21    -1     0     0   512   501  0.000000000E+00  0.000000000E+00  5.027947281E+02  5.027947281E+02  0.000000000E+00  0.00000E+00  9.000E+00
      21    -1     0     0   501   502  0.000000000E+00  0.000000000E+00 -1.936431763E+02  1.936431763E+02  0.000000000E+00  0.00000E+00  9.000E+00
      25     1     1     2     0     0 -1.131996125E+02  7.573416823E+00  4.291745920E+01  1.741792675E+02  1.250000000E+02  0.00000E+00  9.000E+00
      25     1     1     2     0     0  1.085057266E+02  9.244821671E+01 -4.538374911E+01  1.949483269E+02  1.250000000E+02  0.00000E+00  9.000E+00
      21     1     1     2   512   502  4.693885846E+00 -1.000216335E+02  3.116178417E+02  3.273103100E+02  3.814697266E-06  0.00000E+00  9.000E+00
#rwgt            2          11   2.0127792261753763E-003           8      404952           0
</event>
<event>
      5   9999  3.79277E-02  6.97572E+01 -1.00000E+00  1.31297E-01
       1    -1     0     0   502     0  0.000000000E+00  0.000000000E+00  2.132075833E+03  2.132075833E+03  0.000000000E+00  0.00000E+00  9.000E+00
      21    -1     0     0   501   502  0.000000000E+00  0.000000000E+00 -2.659339816E+01  2.659339816E+01  0.000000000E+00  0.00000E+00  9.000E+00
      25     1     1     2     0     0 -2.540167340E+01 -1.822293342E+02  1.065536161E+03  1.088505896E+03  1.250000000E+02  0.00000E+00  9.000E+00
      25     1     1     2     0     0  4.437919274E+01  1.151031825E+02  8.464439826E+02  8.644713246E+02  1.250000000E+02  0.00000E+00  9.000E+00
       1     1     1     2   501     0 -1.897751933E+01  6.712615173E+01  1.935022912E+02  2.056920105E+02  2.697398305E-06  0.00000E+00  9.000E+00
#rwgt            1           1  0.12243495833874038                8      404987           0
</event>
<event>
      5   9999  3.79277E-02  2.07862E+01 -1.00000E+00  1.64999E-01
      21    -1     0     0   502   511  0.000000000E+00  0.000000000E+00  2.514436098E+02  2.514436098E+02  0.000000000E+00  0.00000E+00  9.000E+00
      21    -1     0     0   501   502  0.000000000E+00  0.000000000E+00 -7.698703655E+01  7.698703655E+01  0.000000000E+00  0.00000E+00  9.000E+00
      25     1     1     2     0     0 -1.215447450E-01  1.380810597E+01  6.410459205E+01  1.411562159E+02  1.250000000E+02  0.00000E+00  9.000E+00
      25     1     1     2     0     0 -1.785211089E+01 -2.424902792E+01  8.347089850E+01  1.532941751E+02  1.250000000E+02  0.00000E+00  9.000E+00
      21     1     1     2   501   511  1.797365564E+01  1.044092195E+01  2.688108272E+01  3.398025539E+01  5.840038640E-07  0.00000E+00  9.000E+00
#rwgt            1           1   1.3765572952086174E-003           8      405115           0
</event>
<event>
      5   9999  3.79277E-02  3.78647E+01 -1.00000E+00  1.46333E-01
      21    -1     0     0   502   501  0.000000000E+00  0.000000000E+00  5.526256157E+02  5.526256157E+02  0.000000000E+00  0.00000E+00  9.000E+00
      21    -1     0     0   501   512  0.000000000E+00  0.000000000E+00 -1.264439004E+02  1.264439004E+02  0.000000000E+00  0.00000E+00  9.000E+00
      25     1     1     2     0     0  1.724386303E+02 -2.515483008E+00  4.411798487E+01  2.175150695E+02  1.250000000E+02  0.00000E+00  9.000E+00
      25     1     1     2     0     0 -1.533018012E+02 -3.015739296E+01  3.719637213E+02  4.223658611E+02  1.250000000E+02  0.00000E+00  9.000E+00
      21     1     1     2   502   512 -1.913682909E+01  3.267287597E+01  1.010000907E+01  3.918858551E+01  3.371747881E-07  0.00000E+00  9.000E+00
#rwgt            1           1   3.9255216853272448E-002           8      405215           0
</event>
<event>
      5   9999 -3.79277E-02  1.71754E+02 -1.00000E+00  1.14109E-01
       3    -1     0     0   502     0  0.000000000E+00  0.000000000E+00  9.871681114E+01  9.871681114E+01  0.000000000E+00  0.00000E+00  9.000E+00
      21    -1     0     0   501   502  0.000000000E+00  0.000000000E+00 -1.874240520E+03  1.874240520E+03  0.000000000E+00  0.00000E+00  9.000E+00
      25     1     1     2     0     0 -2.657491119E+02 -9.994071484E+01 -1.498434992E+03  1.530210170E+03  1.250000000E+02  0.00000E+00  9.000E+00
      25     1     1     2     0     0  9.657835914E+01  7.026543466E+01 -1.528989118E+02  2.307979376E+02  1.250000000E+02  0.00000E+00  9.000E+00
       3     1     1     2   501     0  1.691707528E+02  2.967528018E+01 -1.241898043E+02  2.119492235E+02  2.697398305E-06  0.00000E+00  9.000E+00
#rwgt            1           1  -7.4564307064087704E-002           8      405327           0
</event>
<event>
      5   9999  3.79277E-02  1.18743E+02 -1.00000E+00  1.20563E-01
      21    -1     0     0   502   511  0.000000000E+00  0.000000000E+00  1.935615635E+02  1.935615635E+02  0.000000000E+00  0.00000E+00  9.000E+00
      21    -1     0     0   501   502  0.000000000E+00  0.000000000E+00 -3.994971902E+02  3.994971902E+02  0.000000000E+00  0.00000E+00  9.000E+00
      25     1     1     2     0     0 -1.128236828E+02 -1.249795622E+02 -1.898830871E+02  2.828951416E+02  1.250000000E+02  0.00000E+00  9.000E+00
      25     1     1     2     0     0 -4.730520013E+00  1.417394171E+02 -2.680689751E+01  1.909346745E+02  1.250000000E+02  0.00000E+00  9.000E+00
      21     1     1     2   501   511  1.175542028E+02 -1.675985494E+01  1.075435788E+01  1.192289376E+02  2.320757190E-06  0.00000E+00  9.000E+00
#rwgt            1           1   2.0920174695428957E-002           8      405415           0
</event>
<event>
      5   9999  3.79277E-02  5.24999E+01 -1.00000E+00  1.37877E-01
      21    -1     0     0   502   501  0.000000000E+00  0.000000000E+00  2.162961990E+03  2.162961990E+03  0.000000000E+00  0.00000E+00  9.000E+00
      21    -1     0     0   501   512  0.000000000E+00  0.000000000E+00 -2.969467427E+01  2.969467427E+01  0.000000000E+00  0.00000E+00  9.000E+00
      25     1     1     2     0     0  3.509735606E+01 -6.822949151E+01  2.309668154E+02  2.736014579E+02  1.250000000E+02  0.00000E+00  9.000E+00
      25     1     1     2     0     0 -2.594118956E+01  1.199248311E+02  1.732299448E+03  1.741132185E+03  1.250000000E+02  0.00000E+00  9.000E+00
      21     1     1     2   502   512 -9.156166493E+00 -5.169533959E+01  1.700010521E+02  1.779230205E+02  3.303624740E-06  0.00000E+00  9.000E+00
#rwgt            1           1  0.13836016472090021                8      405512           0
</event>
<event>
      5   9999  3.79277E-02  3.41966E+01 -1.00000E+00  1.49193E-01
      21    -1     0     0   511   501  0.000000000E+00  0.000000000E+00  1.358911611E+02  1.358911611E+02  0.000000000E+00  0.00000E+00  9.000E+00
      21    -1     0     0   501   502  0.000000000E+00  0.000000000E+00 -2.824557416E+02  2.824557416E+02  0.000000000E+00  0.00000E+00  9.000E+00
      25     1     1     2     0     0  9.898723598E+01 -5.070771917E+01 -1.230115994E+02  2.076694471E+02  1.250000000E+02  0.00000E+00  9.000E+00
      25     1     1     2     0     0 -8.666035276E+01  8.260525818E+01 -3.058025977E+01  1.757663156E+02  1.250000000E+02  0.00000E+00  9.000E+00
      21     1     1     2   511   502 -1.232688322E+01 -3.189753901E+01  7.027278639E+00  3.491113991E+01  3.953724850E-07  0.00000E+00  9.000E+00
#rwgt            1           1   4.9786227021737982E-002           8      405581           0
</event>
<event>
      5   9999  3.79277E-02  4.82826E+01 -1.00000E+00  1.39947E-01
      21    -1     0     0   502   501  0.000000000E+00  0.000000000E+00  1.512683495E+02  1.512683495E+02  0.000000000E+00  0.00000E+00  9.000E+00
      21    -1     0     0   501   512  0.000000000E+00  0.000000000E+00 -3.846835572E+02  3.846835572E+02  0.000000000E+00  0.00000E+00  9.000E+00
      25     1     1     2     0     0 -1.030780327E+02  2.929897440E-02  6.737877974E+01  1.754707430E+02  1.250000000E+02  0.00000E+00  9.000E+00
      25     1     1     2     0     0  7.035605748E+01  3.547397130E+01 -2.499914346E+02  2.903947225E+02  1.250000000E+02  0.00000E+00  9.000E+00
      21     1     1     2   502   512  3.272197524E+01 -3.550327027E+01 -5.080255283E+01  7.008644119E+01  6.743495762E-07  0.00000E+00  9.000E+00
#rwgt            1           1   2.8902441473248577E-002           8      405716           0
</event>
<event>
      5   9999  3.79277E-02  5.21294E+01 -1.00000E+00  1.38050E-01
      21    -1     0     0   502   511  0.000000000E+00  0.000000000E+00  2.908557674E+02  2.908557674E+02  0.000000000E+00  0.00000E+00  9.000E+00
      21    -1     0     0   501   502  0.000000000E+00  0.000000000E+00 -1.366908129E+02  1.366908129E+02  0.000000000E+00  0.00000E+00  9.000E+00
      25     1     1     2     0     0  1.807733876E+01  7.949747120E+01  1.165231893E+00  1.492414013E+02  1.250000000E+02  0.00000E+00  9.000E+00
      25     1     1     2     0     0 -5.403490301E+01 -1.172403300E+02  1.096545035E+02  2.105093249E+02  1.250000000E+02  0.00000E+00  9.000E+00
      21     1     1     2   501   511  3.595756424E+01  3.774285878E+01  4.334521904E+01  6.779585407E+01  6.743495762E-07  0.00000E+00  9.000E+00
#rwgt            1           1   4.0849729008090731E-002           8      405804           0
</event>
<event>
      5   9999 -3.79277E-02  6.42786E+01 -1.00000E+00  1.33124E-01
      21    -1     0     0   502   512  0.000000000E+00  0.000000000E+00  6.594446946E+02  6.594446946E+02  0.000000000E+00  0.00000E+00  9.000E+00
      21    -1     0     0   501   502  0.000000000E+00  0.000000000E+00 -1.798401180E+02  1.798401180E+02  0.000000000E+00  0.00000E+00  9.000E+00
      25     1     1     2     0     0  1.775190702E+02 -2.185211840E+02  1.713191222E+02  3.524766231E+02  1.250000000E+02  0.00000E+00  9.000E+00
      25     1     1     2     0     0 -2.017213532E+02  1.589729395E+02  1.652530674E+02  3.299961759E+02  1.250000000E+02  0.00000E+00  9.000E+00
      21     1     1     2   501   512  2.420228297E+01  5.954824458E+01  1.430323870E+02  1.568120138E+02  0.000000000E+00  0.00000E+00  9.000E+00
#rwgt            1           1  -5.0276035583980841E-003           8      405886           0
</event>
<event>
      5   9999  3.79277E-02  1.75540E+02 -1.00000E+00  1.13750E-01
      21    -1     0     0   502   511  0.000000000E+00  0.000000000E+00  7.942649495E+02  7.942649495E+02  0.000000000E+00  0.00000E+00  9.000E+00
      21    -1     0     0   501   502  0.000000000E+00  0.000000000E+00 -2.623102201E+02  2.623102201E+02  0.000000000E+00  0.00000E+00  9.000E+00
      25     1     1     2     0     0  2.412829107E+02 -1.266581040E+02  5.418394158E+01  3.046647630E+02  1.250000000E+02  0.00000E+00  9.000E+00
      25     1     1     2     0     0 -2.956710290E+02 -4.024372140E+01  1.054328071E+02  3.402675290E+02  1.250000000E+02  0.00000E+00  9.000E+00
      21     1     1     2   501   511  5.438811830E+01  1.669018254E+02  3.723379807E+02  4.116428775E+02  5.394796609E-06  0.00000E+00  9.000E+00
#rwgt            2          11   2.0689239077153186E-003           8      406060           0
</event>
<event>
      5   9999  3.79277E-02  4.55837E+01 -1.00000E+00  1.41406E-01
      21    -1     0     0   502   501  0.000000000E+00  0.000000000E+00  1.544557732E+02  1.544557732E+02  0.000000000E+00  0.00000E+00  9.000E+00
      21    -1     0     0   512   502  0.000000000E+00  0.000000000E+00 -5.223709630E+02  5.223709630E+02  0.000000000E+00  0.00000E+00  9.000E+00
      25     1     1     2     0     0 -1.595681839E+02 -7.497803212E+01 -3.172070626E+02  3.838346404E+02  1.250000000E+02  0.00000E+00  9.000E+00
      25     1     1     2     0     0  1.229925324E+02  1.021826647E+02  2.512719713E+01  2.045112125E+02  1.250000000E+02  0.00000E+00  9.000E+00
      21     1     1     2   512   501  3.657565150E+01 -2.720463256E+01 -7.583532431E+01  8.848088341E+01  9.536743164E-07  0.00000E+00  9.000E+00
#rwgt            1           1   4.0704141563403150E-002           8      406095           0
</event>
<event>
      5   9999  3.79277E-02  8.72359E+01 -1.00000E+00  1.26555E-01
      21    -1     0     0   502   501  0.000000000E+00  0.000000000E+00  2.335064232E+02  2.335064232E+02  0.000000000E+00  0.00000E+00  9.000E+00
      21    -1     0     0   501   511  0.000000000E+00  0.000000000E+00 -8.002761271E+02  8.002761271E+02  0.000000000E+00  0.00000E+00  9.000E+00
      25     1     1     2     0     0  1.339105035E+01  1.459328830E+02 -4.375906314E+02  4.781069830E+02  1.250000000E+02  0.00000E+00  9.000E+00
      25     1     1     2     0     0  1.759923392E+01 -6.438721244E+01  1.830491330E+02  2.314895921E+02  1.250000000E+02  0.00000E+00  9.000E+00
      21     1     1     2   502   511 -3.099028427E+01 -8.154567058E+01 -3.122282056E+02  3.241859752E+02  6.607249480E-06  0.00000E+00  9.000E+00
#rwgt            1           1   3.2161881864888185E-002           8      406208           0
</event>
<event>
      5   9999  3.79277E-02  1.66168E+01 -1.00000E+00  1.73295E-01
      21    -1     0     0   502   501  0.000000000E+00  0.000000000E+00  2.140307621E+02  2.140307621E+02  0.000000000E+00  0.00000E+00  9.000E+00
      21    -1     0     0   512   502  0.000000000E+00  0.000000000E+00 -2.125672023E+02  2.125672023E+02  0.000000000E+00  0.00000E+00  9.000E+00
      25     1     1     2     0     0 -4.974475493E+01  1.486839716E+02 -1.364733349E+01  2.009793865E+02  1.250000000E+02  0.00000E+00  9.000E+00
      25     1     1     2     0     0  3.951568779E+01 -1.617792298E+02  1.686115854E+01  2.089098069E+02  1.250000000E+02  0.00000E+00  9.000E+00
      21     1     1     2   512   501  1.022906714E+01  1.309525811E+01 -1.750265304E+00  1.670877100E+01  3.594856883E-07  0.00000E+00  9.000E+00
#rwgt            1           1   2.0524548476191756E-002           8      406316           0
</event>
<event>
      5   9999  3.79277E-02  1.83809E+02 -1.00000E+00  1.12999E-01
       2    -1     0     0   502     0  0.000000000E+00  0.000000000E+00  1.218065896E+03  1.218065896E+03  0.000000000E+00  0.00000E+00  9.000E+00
      21    -1     0     0   501   502  0.000000000E+00  0.000000000E+00 -1.957692174E+02  1.957692174E+02  0.000000000E+00  0.00000E+00  9.000E+00
      25     1     1     2     0     0 -5.977042324E+01  1.016889767E+01  1.261821494E+02  1.876775021E+02  1.250000000E+02  0.00000E+00  9.000E+00
      25     1     1     2     0     0 -1.089607791E+02  6.273991937E+01 -1.065065569E+02  2.068269700E+02  1.250000000E+02  0.00000E+00  9.000E+00
       2     1     1     2   501     0  1.687312023E+02 -7.290881704E+01  1.002621086E+03  1.019330641E+03  0.000000000E+00  0.00000E+00  9.000E+00
#rwgt            1           1   3.0127044930863819E-002           8      406631           0
</event>
<event>
      5   9999  3.79277E-02  1.02368E+02 -1.00000E+00  1.23373E-01
       2    -1     0     0   502     0  0.000000000E+00  0.000000000E+00  1.719603752E+03  1.719603752E+03  0.000000000E+00  0.00000E+00  9.000E+00
      21    -1     0     0   501   502  0.000000000E+00  0.000000000E+00 -9.755318119E+01  9.755318119E+01  0.000000000E+00  0.00000E+00  9.000E+00
      25     1     1     2     0     0 -1.032496623E+02  1.034848132E+02  1.889743623E+02  2.696403326E+02  1.250000000E+02  0.00000E+00  9.000E+00
      25     1     1     2     0     0  2.052560843E+02 -9.489419558E+01  2.483698374E+02  3.583957933E+02  1.250000000E+02  0.00000E+00  9.000E+00
       2     1     1     2   501     0 -1.020064219E+02 -8.590617617E+00  1.184706371E+03  1.189120807E+03  1.525878906E-05  0.00000E+00  9.000E+00
#rwgt            1           1   2.8514102636424832E-002           8      406733           0
</event>
<event>
      5   9999  3.79277E-02  2.88856E+01 -1.00000E+00  1.54191E-01
      21    -1     0     0   502   501  0.000000000E+00  0.000000000E+00  3.648584459E+02  3.648584459E+02  0.000000000E+00  0.00000E+00  9.000E+00
      21    -1     0     0   511   502  0.000000000E+00  0.000000000E+00 -2.671076341E+02  2.671076341E+02  0.000000000E+00  0.00000E+00  9.000E+00
      25     1     1     2     0     0 -1.494357021E+02  1.511769166E+02 -1.020514263E+02  2.668800906E+02  1.250000000E+02  0.00000E+00  9.000E+00
      25     1     1     2     0     0  1.205725107E+02 -1.500391553E+02  2.288581317E+02  3.241149841E+02  1.250000000E+02  0.00000E+00  9.000E+00
      21     1     1     2   511   501  2.886319136E+01 -1.137761248E+00 -2.905589370E+01  4.097100529E+01  6.743495762E-07  0.00000E+00  9.000E+00
#rwgt            1           1   3.6135383360742408E-002           8      406839           0
</event>
<event>
      5   9999  3.79277E-02  4.02673E+01 -1.00000E+00  1.44661E-01
      21    -1     0     0   502   501  0.000000000E+00  0.000000000E+00  2.740637040E+01  2.740637040E+01  0.000000000E+00  0.00000E+00  9.000E+00
      21    -1     0     0   501   512  0.000000000E+00  0.000000000E+00 -2.307713776E+03  2.307713776E+03  0.000000000E+00  0.00000E+00  9.000E+00
      25     1     1     2     0     0  2.277802676E+01  6.719597141E+01 -1.129650604E+03  1.138757931E+03  1.250000000E+02  0.00000E+00  9.000E+00
      25     1     1     2     0     0 -2.997588108E+01 -1.068147765E+02 -2.896177181E+02  3.343820757E+02  1.250000000E+02  0.00000E+00  9.000E+00
      21     1     1     2   502   512  7.197854318E+00  3.961880510E+01 -8.610390828E+02  8.619801395E+02  0.000000000E+00  0.00000E+00  9.000E+00
#rwgt            1           1   5.5843456855442973E-002           8      407039           0
</event>
<event>
      5   9999  3.79277E-02  2.86424E+01 -1.00000E+00  1.54450E-01
      21    -1     0     0   502   511  0.000000000E+00  0.000000000E+00  1.800442743E+03  1.800442743E+03  0.000000000E+00  0.00000E+00  9.000E+00
      21    -1     0     0   501   502  0.000000000E+00  0.000000000E+00 -6.560253829E+01  6.560253829E+01  0.000000000E+00  0.00000E+00  9.000E+00
      25     1     1     2     0     0  1.452960388E+02  3.784449139E+01  1.988334604E+02  2.787523801E+02  1.250000000E+02  0.00000E+00  9.000E+00
      25     1     1     2     0     0 -1.370633552E+02 -6.527820605E+01  3.541266274E+02  4.050657672E+02  1.250000000E+02  0.00000E+00  9.000E+00
      21     1     1     2   501   511 -8.232683615E+00  2.743371466E+01  1.181880117E+03  1.182227134E+03  1.525878906E-05  0.00000E+00  9.000E+00
#rwgt            1           1   2.7112726530115230E-002           8      407194           0
</event>
<event>
      5   9999  3.79277E-02  3.61638E+01 -1.00000E+00  1.47609E-01
      21    -1     0     0   502   512  0.000000000E+00  0.000000000E+00  1.848226896E+02  1.848226896E+02  0.000000000E+00  0.00000E+00  9.000E+00
      21    -1     0     0   501   502  0.000000000E+00  0.000000000E+00 -5.242873159E+02  5.242873159E+02  0.000000000E+00  0.00000E+00  9.000E+00
      25     1     1     2     0     0  2.547861056E+02  4.214216190E+01 -2.829895601E+02  4.029888492E+02  1.250000000E+02  0.00000E+00  9.000E+00
      25     1     1     2     0     0 -2.203044257E+02 -5.304319921E+01 -6.903164329E+01  2.678394831E+02  1.250000000E+02  0.00000E+00  9.000E+00
      21     1     1     2   501   512 -3.448167999E+01  1.090103730E+01  1.255657709E+01  3.828167312E+01  5.331201500E-07  0.00000E+00  9.000E+00
#rwgt            1           1   3.4164748827591178E-002           8      407387           0
</event>
<event>
      5   9999  3.79277E-02  1.40743E+02 -1.00000E+00  1.17501E-01
      21    -1     0     0   502   511  0.000000000E+00  0.000000000E+00  7.599774233E+02  7.599774233E+02  0.000000000E+00  0.00000E+00  9.000E+00
      21    -1     0     0   501   502  0.000000000E+00  0.000000000E+00 -2.620998195E+02  2.620998195E+02  0.000000000E+00  0.00000E+00  9.000E+00
      25     1     1     2     0     0 -1.540109910E+02  8.323045358E+01  1.491549993E+02  2.617611651E+02  1.250000000E+02  0.00000E+00  9.000E+00
      25     1     1     2     0     0  1.769239397E+02  5.563469933E+01 -1.318023281E+02  2.596038403E+02  1.250000000E+02  0.00000E+00  9.000E+00
      21     1     1     2   501   511 -2.291294869E+01 -1.388651529E+02  4.805249325E+02  5.007122374E+02  7.629394531E-06  0.00000E+00  9.000E+00
#rwgt            1           1   3.9651539429225842E-002           8      407636           0
</event>
<event>
      5   9999  3.79277E-02  2.57044E+01 -1.00000E+00  1.57852E-01
      21    -1     0     0   502   512  0.000000000E+00  0.000000000E+00  1.358524891E+01  1.358524891E+01  0.000000000E+00  0.00000E+00  9.000E+00
      21    -1     0     0   501   502  0.000000000E+00  0.000000000E+00 -3.950965553E+03  3.950965553E+03  0.000000000E+00  0.00000E+00  9.000E+00
      25     1     1     2     0     0  7.194657451E+01  1.404086984E+01 -2.791683654E+03  2.795442019E+03  1.250000000E+02  0.00000E+00  9.000E+00
      25     1     1     2     0     0 -5.993859876E+01  8.686303208E+00 -1.131004518E+03  1.139501780E+03  1.250000000E+02  0.00000E+00  9.000E+00
      21     1     1     2   501   512 -1.200797575E+01 -2.272717305E+01 -1.469213192E+01  2.960700283E+01  2.255545608E-06  0.00000E+00  9.000E+00
#rwgt            1           1   9.1926584314347692E-003           8      407690           0
</event>
<event>
      5   9999  3.79277E-02  7.77778E+01 -1.00000E+00  1.28944E-01
      21    -1     0     0   502   501  0.000000000E+00  0.000000000E+00  3.805740314E+02  3.805740314E+02  0.000000000E+00  0.00000E+00  9.000E+00
       2    -1     0     0   501     0  0.000000000E+00  0.000000000E+00 -9.926246551E+02  9.926246551E+02  0.000000000E+00  0.00000E+00  9.000E+00
      25     1     1     2     0     0 -1.557132496E+02 -6.744005576E+01  4.691029439E+01  2.159174679E+02  1.250000000E+02  0.00000E+00  9.000E+00
      25     1     1     2     0     0  1.908433123E+02 -1.952045258E+00  1.947938006E+02  2.999910083E+02  1.250000000E+02  0.00000E+00  9.000E+00
       2     1     1     2   502     0 -3.513006270E+01  6.939210102E+01 -8.537547187E+02  8.572902103E+02  0.000000000E+00  0.00000E+00  9.000E+00
#rwgt            1           1   3.2618618356817321E-002           8      407795           0
</event>
<event>
      5   9999 -3.79277E-02  3.18897E+01 -1.00000E+00  1.51220E-01
      21    -1     0     0   511   501  0.000000000E+00  0.000000000E+00  3.300119613E+02  3.300119613E+02  0.000000000E+00  0.00000E+00  9.000E+00
      21    -1     0     0   501   502  0.000000000E+00  0.000000000E+00 -2.874132984E+02  2.874132984E+02  0.000000000E+00  0.00000E+00  9.000E+00
      25     1     1     2     0     0  5.116640464E+01 -2.414937044E+02 -5.422724801E+01  2.819624171E+02  1.250000000E+02  0.00000E+00  9.000E+00
      25     1     1     2     0     0 -2.050977413E+01  2.327115465E+02  3.680677480E+01  2.674977633E+02  1.250000000E+02  0.00000E+00  9.000E+00
      21     1     1     2   511   502 -3.065663051E+01  8.782157902E+00  6.001913620E+01  6.796507929E+01  1.168007728E-06  0.00000E+00  9.000E+00
#rwgt            1           1  -7.2142034803799812E-002           8      407943           0
</event>
<event>
      5   9999  3.79277E-02  6.23921E+01 -1.00000E+00  1.33802E-01
      21    -1     0     0   512   501  0.000000000E+00  0.000000000E+00  9.332090183E+02  9.332090183E+02  0.000000000E+00  0.00000E+00  9.000E+00
      21    -1     0     0   501   502  0.000000000E+00  0.000000000E+00 -4.563309785E+01  4.563309785E+01  0.000000000E+00  0.00000E+00  9.000E+00
      25     1     1     2     0     0 -9.335050835E+01  1.866785962E+01  2.988330143E+02  3.376225360E+02  1.250000000E+02  0.00000E+00  9.000E+00
      25     1     1     2     0     0  1.254447651E+02 -7.217234030E+01  4.273309303E+02  4.681687300E+02  1.250000000E+02  0.00000E+00  9.000E+00
      21     1     1     2   512   502 -3.209425676E+01  5.350448068E+01  1.614119759E+02  1.730508502E+02  2.697398305E-06  0.00000E+00  9.000E+00
#rwgt            1           1   1.1997286712448279E-002           8      408067           0
</event>
<event>
      5   9999  3.79277E-02  5.93089E+01 -1.00000E+00  1.34973E-01
       2    -1     0     0   502     0  0.000000000E+00  0.000000000E+00  1.291754287E+03  1.291754287E+03  0.000000000E+00  0.00000E+00  9.000E+00
      21    -1     0     0   501   502  0.000000000E+00  0.000000000E+00 -8.352041670E+01  8.352041670E+01  0.000000000E+00  0.00000E+00  9.000E+00
      25     1     1     2     0     0  9.434467236E+01 -1.380867744E+02  1.460434238E+02  2.547990504E+02  1.250000000E+02  0.00000E+00  9.000E+00
      25     1     1     2     0     0 -5.980197389E+01  1.862982941E+02  4.590587296E+02  5.144348819E+02  1.250000000E+02  0.00000E+00  9.000E+00
       2     1     1     2   501     0 -3.454269847E+01 -4.821151969E+01  6.031317168E+02  6.060407712E+02  1.078959322E-05  0.00000E+00  9.000E+00
#rwgt            1           1   4.2250742241516343E-002           8      408190           0
</event>
<event>
      5   9999  3.79277E-02  2.17733E+01 -1.00000E+00  1.63381E-01
      21    -1     0     0   502   501  0.000000000E+00  0.000000000E+00  5.004298435E+02  5.004298435E+02  0.000000000E+00  0.00000E+00  9.000E+00
      21    -1     0     0   511   502  0.000000000E+00  0.000000000E+00 -8.709248660E+01  8.709248660E+01  0.000000000E+00  0.00000E+00  9.000E+00
      25     1     1     2     0     0 -1.336754212E+02 -3.184821402E+01  1.508773159E+02  2.393165089E+02  1.250000000E+02  0.00000E+00  9.000E+00
      25     1     1     2     0     0  1.272646713E+02  5.265634265E+01  2.675475206E+02  3.258460722E+02  1.250000000E+02  0.00000E+00  9.000E+00
      21     1     1     2   511   501  6.410749918E+00 -2.080812862E+01 -5.087479503E+00  2.235974908E+01  3.998401125E-07  0.00000E+00  9.000E+00
#rwgt            1           1   3.9283582283048971E-002           8      408268           0
</event>
<event>
      5   9999 -3.79277E-02  3.30538E+01 -1.00000E+00  1.50172E-01
      21    -1     0     0   502   501  0.000000000E+00  0.000000000E+00  9.890093018E+02  9.890093018E+02  0.000000000E+00  0.00000E+00  9.000E+00
      21    -1     0     0   501   512  0.000000000E+00  0.000000000E+00 -1.093240441E+02  1.093240441E+02  0.000000000E+00  0.00000E+00  9.000E+00
      25     1     1     2     0     0  2.320861552E+02  1.549976794E+02  6.080029615E+02  6.805739234E+02  1.250000000E+02  0.00000E+00  9.000E+00
      25     1     1     2     0     0 -2.224180183E+02 -1.233894095E+02  2.523097599E+02  3.794468819E+02  1.250000000E+02  0.00000E+00  9.000E+00
      21     1     1     2   502   512 -9.668136807E+00 -3.160826998E+01  1.937253644E+01  3.831254062E+01  5.840038640E-07  0.00000E+00  9.000E+00
#rwgt            1           1 -0.15043712326049574                8      408416           0
</event>
<event>
      5   9999  3.79277E-02  2.43719E+02 -1.00000E+00  1.08609E-01
      21    -1     0     0   502   501  0.000000000E+00  0.000000000E+00  4.467953673E+02  4.467953673E+02  0.000000000E+00  0.00000E+00  9.000E+00
      21    -1     0     0   501   511  0.000000000E+00  0.000000000E+00 -6.308348366E+02  6.308348366E+02  0.000000000E+00  0.00000E+00  9.000E+00
      25     1     1     2     0     0 -2.309814993E+02  1.017976649E+02 -3.958391006E+01  2.844417401E+02  1.250000000E+02  0.00000E+00  9.000E+00
      25     1     1     2     0     0  4.618597208E+02 -1.798645325E+02 -2.561669389E+00  5.111723916E+02  1.250000000E+02  0.00000E+00  9.000E+00
      21     1     1     2   502   511 -2.308782215E+02  7.806686767E+01 -1.418938898E+02  2.820160722E+02  7.387129490E-06  0.00000E+00  9.000E+00
#rwgt            1           1   2.4739619356380499E-002           8      408784           0
</event>
<event>
      5   9999  3.79277E-02  2.71278E+01 -1.00000E+00  1.56139E-01
      21    -1     0     0   502   501  0.000000000E+00  0.000000000E+00  1.632159694E+02  1.632159694E+02  0.000000000E+00  0.00000E+00  9.000E+00
      -2    -1     0     0     0   502  0.000000000E+00  0.000000000E+00 -3.531304555E+02  3.531304555E+02  0.000000000E+00  0.00000E+00  9.000E+00
      25     1     1     2     0     0  6.466549429E+01 -1.121057582E+00  8.249265221E+01  1.631346701E+02  1.250000000E+02  0.00000E+00  9.000E+00
      25     1     1     2     0     0 -9.028947712E+01  1.002772791E+01 -1.127994427E+02  1.913150786E+02  1.250000000E+02  0.00000E+00  9.000E+00
      -2     1     1     2     0   501  2.562398283E+01 -8.906670333E+00 -1.596076956E+02  1.618966762E+02  3.303624740E-06  0.00000E+00  9.000E+00
#rwgt            1           1   4.6524655505813091E-002           8      408883           0
</event>
<event>
      5   9999  3.79277E-02  7.50609E+00 -1.00000E+00  2.11356E-01
      21    -1     0     0   502   511  0.000000000E+00  0.000000000E+00  3.082974595E+02  3.082974595E+02  0.000000000E+00  0.00000E+00  9.000E+00
      21    -1     0     0   501   502  0.000000000E+00  0.000000000E+00 -2.175445528E+02  2.175445528E+02  0.000000000E+00  0.00000E+00  9.000E+00
      25     1     1     2     0     0 -1.690078072E+02 -4.572527854E+01  5.335406001E+01  2.216440744E+02  1.250000000E+02  0.00000E+00  9.000E+00
      25     1     1     2     0     0  1.724145400E+02  3.903681170E+01 -4.526918202E+01  2.211898395E+02  1.250000000E+02  0.00000E+00  9.000E+00
      21     1     1     2   501   511 -3.406732739E+00  6.688466837E+00  8.266802872E+01  8.300809834E+01  9.536743164E-07  0.00000E+00  9.000E+00
#rwgt            2          11   6.0769745476020208E-004           8      409063           0
</event>
<event>
      5   9999  3.79277E-02  6.18153E+01 -1.00000E+00  1.34015E-01
      -3    -1     0     0     0   501  0.000000000E+00  0.000000000E+00  7.201146149E+01  7.201146149E+01  0.000000000E+00  0.00000E+00  9.000E+00
      21    -1     0     0   501   502  0.000000000E+00  0.000000000E+00 -1.119000753E+03  1.119000753E+03  0.000000000E+00  0.00000E+00  9.000E+00
      25     1     1     2     0     0  5.860388296E+01  6.390724099E+01 -9.680620252E+02  9.799426694E+02  1.250000000E+02  0.00000E+00  9.000E+00
      25     1     1     2     0     0 -2.232082236E+01 -1.386058699E+01 -7.716204330E+01  1.492290719E+02  1.250000000E+02  0.00000E+00  9.000E+00
      -3     1     1     2     0   502 -3.628306060E+01 -5.004665401E+01 -1.765222580E+00  6.184047279E+01  1.771296211E-06  0.00000E+00  9.000E+00
#rwgt            1           1   3.3175136453601164E-002           8      409188           0
</event>
<event>
      5   9999  3.79277E-02  2.99899E+01 -1.00000E+00  1.53050E-01
      21    -1     0     0   511   501  0.000000000E+00  0.000000000E+00  1.045056571E+02  1.045056571E+02  0.000000000E+00  0.00000E+00  9.000E+00
      21    -1     0     0   501   502  0.000000000E+00  0.000000000E+00 -9.993066912E+02  9.993066912E+02  0.000000000E+00  0.00000E+00  9.000E+00
      25     1     1     2     0     0  1.839529296E+02 -1.110828750E+02 -5.674515097E+02  6.195194116E+02  1.250000000E+02  0.00000E+00  9.000E+00
      25     1     1     2     0     0 -2.134600305E+02  1.164423847E+02 -3.518364904E+02  4.455759526E+02  1.250000000E+02  0.00000E+00  9.000E+00
      21     1     1     2   511   502  2.950710091E+01 -5.359509679E+00  2.448696603E+01  3.871698404E+01  9.536743164E-07  0.00000E+00  9.000E+00
#rwgt            1           1   3.8393116920561986E-002           8      409378           0
</event>
<event>
      5   9999  3.79277E-02  6.31966E+01 -1.00000E+00  1.33510E-01
      21    -1     0     0   502   501  0.000000000E+00  0.000000000E+00  2.384170231E+02  2.384170231E+02  0.000000000E+00  0.00000E+00  9.000E+00
      21    -1     0     0   512   502  0.000000000E+00  0.000000000E+00 -7.218991421E+02  7.218991421E+02  0.000000000E+00  0.00000E+00  9.000E+00
      25     1     1     2     0     0 -1.440588942E+02 -9.304790858E+01  7.611478519E+01  2.254536290E+02  1.250000000E+02  0.00000E+00  9.000E+00
      25     1     1     2     0     0  1.743013298E+02  1.485384909E+02 -1.138537941E+02  2.846617700E+02  1.250000000E+02  0.00000E+00  9.000E+00
      21     1     1     2   512   501 -3.024243559E+01 -5.549058236E+01 -4.457431101E+02  4.502007662E+02  5.394796609E-06  0.00000E+00  9.000E+00
#rwgt            1           1   4.1189198437337447E-002           8      409644           0
</event>
<event>
      5   9999  3.79277E-02  2.98885E+01 -1.00000E+00  1.53152E-01
      21    -1     0     0   502   501  0.000000000E+00  0.000000000E+00  8.923147690E+01  8.923147690E+01  0.000000000E+00  0.00000E+00  9.000E+00
       2    -1     0     0   501     0  0.000000000E+00  0.000000000E+00 -1.946767444E+03  1.946767444E+03  0.000000000E+00  0.00000E+00  9.000E+00
      25     1     1     2     0     0 -6.776267718E+01 -1.776992492E+00  1.221207747E+01  1.427202612E+02  1.250000000E+02  0.00000E+00  9.000E+00
      25     1     1     2     0     0  3.994311328E+01  1.270372027E+01 -3.624381392E+02  3.856724537E+02  1.250000000E+02  0.00000E+00  9.000E+00
       2     1     1     2   502     0  2.781956389E+01 -1.092672778E+01 -1.507309906E+03  1.507606206E+03  0.000000000E+00  0.00000E+00  9.000E+00
#rwgt            1           1   3.4875952735809269E-002           8      409749           0
</event>
<event>
      5   9999 -3.79277E-02  2.12252E+01 -1.00000E+00  1.64266E-01
      21    -1     0     0   502   501  0.000000000E+00  0.000000000E+00  1.648307995E+02  1.648307995E+02  0.000000000E+00  0.00000E+00  9.000E+00
      21    -1     0     0   501   511  0.000000000E+00  0.000000000E+00 -4.945363355E+02  4.945363355E+02  0.000000000E+00  0.00000E+00  9.000E+00
      25     1     1     2     0     0 -1.680981566E+02 -1.527303836E+02 -1.460580873E+02  2.975592801E+02  1.250000000E+02  0.00000E+00  9.000E+00
      25     1     1     2     0     0  1.892855690E+02  1.539964400E+02 -1.286419451E+02  3.028492698E+02  1.250000000E+02  0.00000E+00  9.000E+00
      21     1     1     2   502   511 -2.118741239E+01 -1.266056446E+00 -5.500550356E+01  5.895858517E+01  1.168007728E-06  0.00000E+00  9.000E+00
#rwgt            1           1 -0.15867727077879212                8      409913           0
</event>
<event>
      5   9999  3.79277E-02  1.98082E+02 -1.00000E+00  1.11801E-01
      -1    -1     0     0     0   501  0.000000000E+00  0.000000000E+00  1.927027458E+02  1.927027458E+02  0.000000000E+00  0.00000E+00  9.000E+00
      21    -1     0     0   501   502  0.000000000E+00  0.000000000E+00 -5.349849756E+02  5.349849756E+02  0.000000000E+00  0.00000E+00  9.000E+00
      25     1     1     2     0     0 -1.090098283E+02 -3.071916014E+01 -6.921849787E+01  1.823266572E+02  1.250000000E+02  0.00000E+00  9.000E+00
      25     1     1     2     0     0  1.456263742E+02 -1.639493866E+02 -7.056311336E+01  2.620889071E+02  1.250000000E+02  0.00000E+00  9.000E+00
      -1     1     1     2     0   502 -3.661654588E+01  1.946685467E+02 -2.025006186E+02  2.832721572E+02  2.697398305E-06  0.00000E+00  9.000E+00
#rwgt            1           1   1.4096731957255273E-002           8      410087           0
</event>
<event>
      5   9999  3.79277E-02  1.08450E+02 -1.00000E+00  1.22264E-01
      21    -1     0     0   511   501  0.000000000E+00  0.000000000E+00  8.459592881E+02  8.459592881E+02  0.000000000E+00  0.00000E+00  9.000E+00
      21    -1     0     0   501   502  0.000000000E+00  0.000000000E+00 -3.647465528E+02  3.647465528E+02  0.000000000E+00  0.00000E+00  9.000E+00
      25     1     1     2     0     0 -3.033054536E+02 -2.692517686E+02  4.645578929E+02  6.292294883E+02  1.250000000E+02  0.00000E+00  9.000E+00
      25     1     1     2     0     0  1.997205117E+02  3.013681943E+02 -1.255698125E+02  4.026212229E+02  1.250000000E+02  0.00000E+00  9.000E+00
      21     1     1     2   511   502  1.035849419E+02 -3.211642567E+01  1.422246548E+02  1.788551297E+02  3.303624740E-06  0.00000E+00  9.000E+00
#rwgt            2          11   3.4174252949354515E-003           8      410114           0
</event>
<event>
      5   9999  3.79277E-02  1.75533E+02 -1.00000E+00  1.13751E-01
      21    -1     0     0   502   501  0.000000000E+00  0.000000000E+00  9.367237255E+01  9.367237255E+01  0.000000000E+00  0.00000E+00  9.000E+00
      21    -1     0     0   501   512  0.000000000E+00  0.000000000E+00 -1.153658303E+03  1.153658303E+03  0.000000000E+00  0.00000E+00  9.000E+00
      25     1     1     2     0     0 -1.376738655E+02  4.041298316E+01 -7.412601017E+02  7.652965706E+02  1.250000000E+02  0.00000E+00  9.000E+00
      25     1     1     2     0     0 -1.208548590E+01  5.115064389E+01 -2.213876893E+01  1.373956784E+02  1.250000000E+02  0.00000E+00  9.000E+00
      21     1     1     2   502   512  1.497593514E+02 -9.156362706E+01 -2.965870602E+02  3.446384271E+02  8.529922400E-06  0.00000E+00  9.000E+00
#rwgt            1           1   3.2270993819555914E-002           8      410254           0
</event>
<event>
      5   9999  3.79277E-02  5.85555E+01 -1.00000E+00  1.35271E-01
      21    -1     0     0   511   501  0.000000000E+00  0.000000000E+00  1.200893841E+03  1.200893841E+03  0.000000000E+00  0.00000E+00  9.000E+00
      21    -1     0     0   501   502  0.000000000E+00  0.000000000E+00 -4.362684924E+01  4.362684924E+01  0.000000000E+00  0.00000E+00  9.000E+00
      25     1     1     2     0     0 -4.493214310E+01 -5.291687065E+01  8.940643275E+02  9.054253776E+02  1.250000000E+02  0.00000E+00  9.000E+00
      25     1     1     2     0     0  2.795033131E+01 -3.122066555E+00  9.084605708E+01  1.570635999E+02  1.250000000E+02  0.00000E+00  9.000E+00
      21     1     1     2   511   502  1.698181180E+01  5.603893720E+01  1.723566073E+02  1.820317129E+02  1.907348633E-06  0.00000E+00  9.000E+00
#rwgt            1           1   4.8794377575122796E-002           8      410397           0
</event>
<event>
      5   9999  3.79277E-02  2.41076E+01 -1.00000E+00  1.59942E-01
      21    -1     0     0   502   501  0.000000000E+00  0.000000000E+00  1.375647885E+02  1.375647885E+02  0.000000000E+00  0.00000E+00  9.000E+00
      21    -1     0     0   512   502  0.000000000E+00  0.000000000E+00 -4.719329861E+02  4.719329861E+02  0.000000000E+00  0.00000E+00  9.000E+00
      25     1     1     2     0     0  1.936557394E+02  8.929908971E+01 -1.241228176E+02  2.766014220E+02  1.250000000E+02  0.00000E+00  9.000E+00
      25     1     1     2     0     0 -1.696571261E+02 -9.158910826E+01 -1.694126390E+02  2.854781032E+02  1.250000000E+02  0.00000E+00  9.000E+00
      21     1     1     2   512   501 -2.399861331E+01  2.290018550E+00 -4.083274114E+01  4.741824939E+01  0.000000000E+00  0.00000E+00  9.000E+00
#rwgt            1           1   4.1440104778386271E-002           8      410513           0
</event>
<event>
      5   9999 -3.79277E-02  6.20395E+01 -1.00000E+00  1.33932E-01
      21    -1     0     0   502   501  0.000000000E+00  0.000000000E+00  4.012277203E+02  4.012277203E+02  0.000000000E+00  0.00000E+00  9.000E+00
      21    -1     0     0   501   511  0.000000000E+00  0.000000000E+00 -1.592590024E+02  1.592590024E+02  0.000000000E+00  0.00000E+00  9.000E+00
      25     1     1     2     0     0 -1.833435218E+01 -1.157493197E+02 -1.193398105E+01  1.717599295E+02  1.250000000E+02  0.00000E+00  9.000E+00
      25     1     1     2     0     0  7.980273619E+01  1.073503705E+02  2.685155628E+02  3.249895171E+02  1.250000000E+02  0.00000E+00  9.000E+00
      21     1     1     2   502   511 -6.146838401E+01  8.398949159E+00 -1.461286391E+01  6.373727615E+01  2.001864388E-06  0.00000E+00  9.000E+00
#rwgt            1           1  -9.8968237391912642E-002           8      410720           0
</event>
<event>
      5   9999 -3.79277E-02  1.37418E+01 -1.00000E+00  1.81045E-01
      21    -1     0     0   502   512  0.000000000E+00  0.000000000E+00  1.253877486E+03  1.253877486E+03  0.000000000E+00  0.00000E+00  9.000E+00
      21    -1     0     0   501   502  0.000000000E+00  0.000000000E+00 -6.938494460E+01  6.938494460E+01  0.000000000E+00  0.00000E+00  9.000E+00
      25     1     1     2     0     0  5.857069286E+00 -1.886689084E+02  8.694948095E+02  8.984856627E+02  1.250000000E+02  0.00000E+00  9.000E+00
      25     1     1     2     0     0 -1.660472820E+01  1.801058624E+02  1.668758689E+02  2.760188296E+02  1.250000000E+02  0.00000E+00  9.000E+00
      21     1     1     2   501   512  1.074765891E+01  8.563046066E+00  1.481218625E+02  1.487579379E+02  1.907348633E-06  0.00000E+00  9.000E+00
#rwgt            1           1  -1.4717438213192482E-002           8      411030           0
</event>
<event>
      5   9999  3.79277E-02  4.77225E+01 -1.00000E+00  1.40241E-01
      21    -1     0     0   502   501  0.000000000E+00  0.000000000E+00  3.135291747E+02  3.135291747E+02  0.000000000E+00  0.00000E+00  9.000E+00
       2    -1     0     0   501     0  0.000000000E+00  0.000000000E+00 -2.036878152E+02  2.036878152E+02  0.000000000E+00  0.00000E+00  9.000E+00
      25     1     1     2     0     0 -1.874905078E+00  9.528543390E+01  1.248322068E+02  2.007259550E+02  1.250000000E+02  0.00000E+00  9.000E+00
      25     1     1     2     0     0  2.259448160E+01 -1.382753328E+02  8.468610822E+01  2.059789193E+02  1.250000000E+02  0.00000E+00  9.000E+00
       2     1     1     2   502     0 -2.071957652E+01  4.298989890E+01 -9.967695546E+01  1.105121157E+02  1.907348633E-06  0.00000E+00  9.000E+00
#rwgt            1           1   4.0484958486450139E-002           8      411192           0
</event>
<event>
      5   9999  3.79277E-02  4.46585E+00 -1.00000E+00  2.52684E-01
      21    -1     0     0   502   511  0.000000000E+00  0.000000000E+00  6.340127675E+02  6.340127675E+02  0.000000000E+00  0.00000E+00  9.000E+00
      21    -1     0     0   501   502  0.000000000E+00  0.000000000E+00 -5.544725191E+01  5.544725191E+01  0.000000000E+00  0.00000E+00  9.000E+00
      25     1     1     2     0     0 -1.333042459E+02  2.337285947E+01  2.493655582E+02  3.100395042E+02  1.250000000E+02  0.00000E+00  9.000E+00
      25     1     1     2     0     0  1.317040832E+02 -1.920353431E+01  3.106228558E+02  3.603141682E+02  1.250000000E+02  0.00000E+00  9.000E+00
      21     1     1     2   501   511  1.600162742E+00 -4.169325160E+00  1.857710155E+01  1.910634698E+01  3.371747881E-07  0.00000E+00  9.000E+00
#rwgt            1           1   2.8383603611098356E-002           8      411372           0
</event>
<event>
      5   9999  3.79277E-02  9.55233E+01 -1.00000E+00  1.24729E-01
      21    -1     0     0   502   501  0.000000000E+00  0.000000000E+00  7.126254763E+01  7.126254763E+01  0.000000000E+00  0.00000E+00  9.000E+00
      21    -1     0     0   512   502  0.000000000E+00  0.000000000E+00 -1.014927159E+03  1.014927159E+03  0.000000000E+00  0.00000E+00  9.000E+00
      25     1     1     2     0     0 -2.270164309E+01 -1.430181980E+02 -2.358402058E+02  3.036695115E+02  1.250000000E+02  0.00000E+00  9.000E+00
      25     1     1     2     0     0 -6.938888654E+01  1.683960578E+02 -3.650373079E+02  4.266723404E+02  1.250000000E+02  0.00000E+00  9.000E+00
      21     1     1     2   512   501  9.209052963E+01 -2.537785986E+01 -3.427870977E+02  3.558478548E+02  3.814697266E-06  0.00000E+00  9.000E+00
#rwgt            1           1   3.2178234845465906E-002           8      411817           0
</event>
<event>
      5   9999  3.79277E-02  8.47844E+00 -1.00000E+00  2.04426E-01
      21    -1     0     0   502   501  0.000000000E+00  0.000000000E+00  3.032665094E+01  3.032665094E+01  0.000000000E+00  0.00000E+00  9.000E+00
      21    -1     0     0   501   511  0.000000000E+00  0.000000000E+00 -8.066050769E+02  8.066050769E+02  0.000000000E+00  0.00000E+00  9.000E+00
      25     1     1     2     0     0 -8.443697690E+01  1.926713425E+01 -3.545211368E+02  3.857603685E+02  1.250000000E+02  0.00000E+00  9.000E+00
      25     1     1     2     0     0  7.625316840E+01 -2.148281705E+01 -3.662313126E+02  3.950018120E+02  1.250000000E+02  0.00000E+00  9.000E+00
      21     1     1     2   502   511  8.183808498E+00  2.215682806E+00 -5.552597653E+01  5.616954728E+01  6.743495762E-07  0.00000E+00  9.000E+00
#rwgt            1           1  0.11568427298283068                8      412127           0
</event>
<event>
      5   9999  3.79277E-02  9.31951E+01 -1.00000E+00  1.25220E-01
      21    -1     0     0   512   501  0.000000000E+00  0.000000000E+00  6.016323465E+02  6.016323465E+02  0.000000000E+00  0.00000E+00  9.000E+00
      21    -1     0     0   501   502  0.000000000E+00  0.000000000E+00 -2.551098272E+02  2.551098272E+02  0.000000000E+00  0.00000E+00  9.000E+00
      25     1     1     2     0     0  1.397866920E+02  1.326450963E+02  2.902170138E+02  3.701161384E+02  1.250000000E+02  0.00000E+00  9.000E+00
      25     1     1     2     0     0 -1.146336169E+02 -2.223816519E+02 -1.063077918E+02  2.992002871E+02  1.250000000E+02  0.00000E+00  9.000E+00
      21     1     1     2   512   502 -2.515307509E+01  8.973655561E+01  1.626132973E+02  1.874257481E+02  2.697398305E-06  0.00000E+00  9.000E+00
#rwgt            1           1   2.6819125642548659E-002           8      412429           0
</event>
<event>
      5   9999  3.79277E-02  5.43230E+00 -1.00000E+00  2.32392E-01
      21    -1     0     0   502   511  0.000000000E+00  0.000000000E+00  1.153969813E+03  1.153969813E+03  0.000000000E+00  0.00000E+00  9.000E+00
      21    -1     0     0   501   502  0.000000000E+00  0.000000000E+00 -5.068207870E+01  5.068207870E+01  0.000000000E+00  0.00000E+00  9.000E+00
      25     1     1     2     0     0 -9.487772782E+01  6.556805724E+01  9.557526879E+02  9.707673016E+02  1.250000000E+02  0.00000E+00  9.000E+00
      25     1     1     2     0     0  8.972106249E+01 -6.727648887E+01  1.214667123E+02  2.072562597E+02  1.250000000E+02  0.00000E+00  9.000E+00
      21     1     1     2   501   511  5.156665328E+00  1.708431628E+00  2.606833370E+01  2.662832998E+01  4.768371582E-07  0.00000E+00  9.000E+00
#rwgt            1           1   5.2552395310746375E-002           8      412564           0
</event>
<event>
      5   9999 -3.79277E-02  4.00407E+01 -1.00000E+00  1.44813E-01
      21    -1     0     0   502   512  0.000000000E+00  0.000000000E+00  4.795324091E+01  4.795324091E+01  0.000000000E+00  0.00000E+00  9.000E+00
      21    -1     0     0   501   502  0.000000000E+00  0.000000000E+00 -1.129565868E+03  1.129565868E+03  0.000000000E+00  0.00000E+00  9.000E+00
      25     1     1     2     0     0  1.440364406E+02  1.137647865E+02 -6.250078940E+02  6.632863563E+02  1.250000000E+02  0.00000E+00  9.000E+00
      25     1     1     2     0     0 -1.041809317E+02 -1.099180749E+02 -3.728974176E+02  4.214417324E+02  1.250000000E+02  0.00000E+00  9.000E+00
      21     1     1     2   501   512 -3.985550888E+01 -3.846711577E+00 -8.370731541E+01  9.279102020E+01  0.000000000E+00  0.00000E+00  9.000E+00
#rwgt            1           1 -0.22803305657294640                8      412978           0
</event>
<event>
      5   9999  3.79277E-02  1.14807E+02 -1.00000E+00  1.21189E-01
      21    -1     0     0   502   501  0.000000000E+00  0.000000000E+00  4.606381703E+02  4.606381703E+02  0.000000000E+00  0.00000E+00  9.000E+00
       1    -1     0     0   501     0  0.000000000E+00  0.000000000E+00 -1.426234973E+03  1.426234973E+03  0.000000000E+00  0.00000E+00  9.000E+00
      25     1     1     2     0     0  1.846303762E+02 -2.842660036E+01 -1.366762393E+02  2.630624295E+02  1.250000000E+02  0.00000E+00  9.000E+00
      25     1     1     2     0     0 -2.112999800E+02 -8.323995657E+01  3.520923932E+02  4.372306316E+02  1.250000000E+02  0.00000E+00  9.000E+00
       1     1     1     2   502     0  2.666960381E+01  1.116665569E+02 -1.181012956E+03  1.186580082E+03  0.000000000E+00  0.00000E+00  9.000E+00
#rwgt            1           1   3.7898793409890948E-002           8      413126           0
</event>
<event>
      5   9999  3.79277E-02  1.00004E+01 -1.00000E+00  1.95755E-01
      21    -1     0     0   502   501  0.000000000E+00  0.000000000E+00  8.840259982E+02  8.840259982E+02  0.000000000E+00  0.00000E+00  9.000E+00
      21    -1     0     0   511   502  0.000000000E+00  0.000000000E+00 -3.568690978E+01  3.568690978E+01  0.000000000E+00  0.00000E+00  9.000E+00
      25     1     1     2     0     0 -2.905104048E+01  5.326153818E+01  1.441216875E+02  2.001919459E+02  1.250000000E+02  0.00000E+00  9.000E+00
      25     1     1     2     0     0  2.691173506E+01 -4.349266581E+01  6.806396204E+02  6.939100420E+02  1.250000000E+02  0.00000E+00  9.000E+00
      21     1     1     2   511   501  2.139305414E+00 -9.768872373E+00  2.357778053E+01  2.561092013E+01  3.371747881E-07  0.00000E+00  9.000E+00
#rwgt            1           1   3.8553356058963664E-002           8      413338           0
</event>
<event>
      5   9999  3.79277E-02  9.69728E+01 -1.00000E+00  1.24431E-01
      21    -1     0     0   502   501  0.000000000E+00  0.000000000E+00  1.606553790E+02  1.606553790E+02  0.000000000E+00  0.00000E+00  9.000E+00
      21    -1     0     0   501   512  0.000000000E+00  0.000000000E+00 -3.499179007E+02  3.499179007E+02  0.000000000E+00  0.00000E+00  9.000E+00
      25     1     1     2     0     0 -8.243074730E+01 -9.574332962E+01  3.501636581E+01  1.811429246E+02  1.250000000E+02  0.00000E+00  9.000E+00
      25     1     1     2     0     0  1.456743419E+01  2.647358488E+01 -1.838594991E+02  2.243710682E+02  1.250000000E+02  0.00000E+00  9.000E+00
      21     1     1     2   502   512  6.786331311E+01  6.926974474E+01 -4.041938844E+01  1.050592869E+02  6.743495762E-07  0.00000E+00  9.000E+00
#rwgt            1           1   4.3236833987552514E-002           8      413637           0
</event>
<event>
      5   9999  3.79277E-02  5.75813E+01 -1.00000E+00  1.35665E-01
      -2    -1     0     0     0   501  0.000000000E+00  0.000000000E+00  2.118443910E+02  2.118443910E+02  0.000000000E+00  0.00000E+00  9.000E+00
      21    -1     0     0   501   502  0.000000000E+00  0.000000000E+00 -2.447635915E+02  2.447635915E+02  0.000000000E+00  0.00000E+00  9.000E+00
      25     1     1     2     0     0  3.784394304E+01 -1.076309805E+02 -2.374215918E+01  1.708955298E+02  1.250000000E+02  0.00000E+00  9.000E+00
      25     1     1     2     0     0 -6.643906850E+01  1.576102655E+02 -4.676376831E+01  2.169492928E+02  1.250000000E+02  0.00000E+00  9.000E+00
      -2     1     1     2     0   502  2.859512546E+01 -4.997928495E+01  3.758672692E+01  6.876315994E+01  1.066240300E-06  0.00000E+00  9.000E+00
#rwgt            1           1   4.0164233005129168E-002           8      413709           0
</event>
<event>
      5   9999  3.79277E-02  4.83511E+01 -1.00000E+00  1.39912E-01
      21    -1     0     0   502   511  0.000000000E+00  0.000000000E+00  2.644706535E+02  2.644706535E+02  0.000000000E+00  0.00000E+00  9.000E+00
      21    -1     0     0   501   502  0.000000000E+00  0.000000000E+00 -2.457752448E+02  2.457752448E+02  0.000000000E+00  0.00000E+00  9.000E+00
      25     1     1     2     0     0 -6.698076498E+00  1.525454247E+02 -3.797851680E+01  2.009535732E+02  1.250000000E+02  0.00000E+00  9.000E+00
      25     1     1     2     0     0 -2.712363936E+01 -1.870986170E+02 -1.008126216E+01  2.268660753E+02  1.250000000E+02  0.00000E+00  9.000E+00
      21     1     1     2   501   511  3.382171585E+01  3.455319226E+01  6.675518774E+01  8.242624976E+01  0.000000000E+00  0.00000E+00  9.000E+00
#rwgt            1           1  0.13437634840838628                8      413818           0
</event>
<event>
      5   9999  3.79277E-02  1.55593E+02 -1.00000E+00  1.15767E-01
      21    -1     0     0   502   501  0.000000000E+00  0.000000000E+00  1.936752086E+03  1.936752086E+03  0.000000000E+00  0.00000E+00  9.000E+00
      21    -1     0     0   512   502  0.000000000E+00  0.000000000E+00 -6.630246655E+01  6.630246655E+01  0.000000000E+00  0.00000E+00  9.000E+00
      25     1     1     2     0     0  1.825242451E+02 -9.493263529E+01  8.259259855E+02  8.602941583E+02  1.250000000E+02  0.00000E+00  9.000E+00
      25     1     1     2     0     0 -4.028643732E+01  1.580009902E+02  9.222863318E+02  9.448938500E+02  1.250000000E+02  0.00000E+00  9.000E+00
      21     1     1     2   512   501 -1.422378077E+02 -6.306835494E+01  1.222373024E+02  1.978665446E+02  1.348699152E-06  0.00000E+00  9.000E+00
#rwgt            1           1   4.0297036774057604E-002           8      414019           0
</event>
<event>
      5   9999  3.79277E-02  1.22211E+02 -1.00000E+00  1.20033E-01
      21    -1     0     0   502   511  0.000000000E+00  0.000000000E+00  5.544788336E+02  5.544788336E+02  0.000000000E+00  0.00000E+00  9.000E+00
      21    -1     0     0   501   502  0.000000000E+00  0.000000000E+00 -2.328899017E+02  2.328899017E+02  0.000000000E+00  0.00000E+00  9.000E+00
      25     1     1     2     0     0 -1.585160906E+02 -1.464516706E+02 -7.588198419E+01  2.606885466E+02  1.250000000E+02  0.00000E+00  9.000E+00
      25     1     1     2     0     0  1.804567102E+02  2.622602717E+01  2.263998543E+02  3.164400777E+02  1.250000000E+02  0.00000E+00  9.000E+00
      21     1     1     2   501   511 -2.194061965E+01  1.202256434E+02  1.710710617E+02  2.102401110E+02  2.697398305E-06  0.00000E+00  9.000E+00
#rwgt            1           1   3.5610592507622739E-002           8      414059           0
</event>
<event>
      5   9999  3.79277E-02  8.04108E+01 -1.00000E+00  1.28242E-01
      21    -1     0     0   502   501  0.000000000E+00  0.000000000E+00  1.053594903E+02  1.053594903E+02  0.000000000E+00  0.00000E+00  9.000E+00
      21    -1     0     0   512   502  0.000000000E+00  0.000000000E+00 -5.807374096E+02  5.807374096E+02  0.000000000E+00  0.00000E+00  9.000E+00
      25     1     1     2     0     0 -1.805262444E+01  1.204331601E+01 -3.815426799E+02  4.020830204E+02  1.250000000E+02  0.00000E+00  9.000E+00
      25     1     1     2     0     0  9.688671527E+01  3.802203210E+00  2.897166104E+00  1.582241635E+02  1.250000000E+02  0.00000E+00  9.000E+00
      21     1     1     2   512   501 -7.883409083E+01 -1.584551922E+01 -9.673240558E+01  1.257897160E+02  0.000000000E+00  0.00000E+00  9.000E+00
#rwgt            1           1   5.1301620515963091E-002           8      414157           0
</event>
<event>
      5   9999  3.79277E-02  3.58227E+01 -1.00000E+00  1.47875E-01
      21    -1     0     0   502   511  0.000000000E+00  0.000000000E+00  2.496795208E+01  2.496795208E+01  0.000000000E+00  0.00000E+00  9.000E+00
      21    -1     0     0   501   502  0.000000000E+00  0.000000000E+00 -1.613273494E+03  1.613273494E+03  0.000000000E+00  0.00000E+00  9.000E+00
      25     1     1     2     0     0  8.868084384E+01 -4.907803818E+01 -4.127422344E+02  4.430057538E+02  1.250000000E+02  0.00000E+00  9.000E+00
      25     1     1     2     0     0 -1.164843523E+02  2.648978399E+01 -1.066908462E+03  1.080827913E+03  1.250000000E+02  0.00000E+00  9.000E+00
      21     1     1     2   501   511  2.780350843E+01  2.258825420E+01 -1.086548459E+02  1.144077788E+02  2.336015456E-06  0.00000E+00  9.000E+00
#rwgt            1           1   4.5124571258084931E-002           8      414237           0
</event>
<event>
      5   9999  3.79277E-02  4.32822E+01 -1.00000E+00  1.42748E-01
      21    -1     0     0   502   512  0.000000000E+00  0.000000000E+00  1.755961235E+03  1.755961235E+03  0.000000000E+00  0.00000E+00  9.000E+00
      21    -1     0     0   501   502  0.000000000E+00  0.000000000E+00 -4.124887371E+01  4.124887371E+01  0.000000000E+00  0.00000E+00  9.000E+00
      25     1     1     2     0     0 -1.339422717E+02 -1.034633090E+02  5.902216788E+02  6.266033981E+02  1.250000000E+02  0.00000E+00  9.000E+00
      25     1     1     2     0     0  1.160252051E+02  6.406373658E+01  3.470544172E+02  3.919665535E+02  1.250000000E+02  0.00000E+00  9.000E+00
      21     1     1     2   501   512  1.791706657E+01  3.939957242E+01  7.774362655E+02  7.786401573E+02  1.078959322E-05  0.00000E+00  9.000E+00
#rwgt            1           1   3.7316113378476110E-002           8      414513           0
</event>
<event>
      5   9999  3.79277E-02  3.35175E+01 -1.00000E+00  1.49769E-01
      21    -1     0     0   502   501  0.000000000E+00  0.000000000E+00  3.152249032E+02  3.152249032E+02  0.000000000E+00  0.00000E+00  9.000E+00
       2    -1     0     0   501     0  0.000000000E+00  0.000000000E+00 -9.106217968E+02  9.106217968E+02  0.000000000E+00  0.00000E+00  9.000E+00
      25     1     1     2     0     0  9.185262356E+00  2.165027002E+01 -1.583590519E+02  2.031149737E+02  1.250000000E+02  0.00000E+00  9.000E+00
      25     1     1     2     0     0 -3.293321234E+01  2.002565582E+00  2.781671072E+02  3.067418235E+02  1.250000000E+02  0.00000E+00  9.000E+00
       2     1     1     2   502     0  2.374794998E+01 -2.365283560E+01 -7.152049490E+02  7.159899027E+02  0.000000000E+00  0.00000E+00  9.000E+00
#rwgt            1           1   2.8428495392367949E-002           8      414754           0
</event>
<event>
      5   9999  3.79277E-02  8.71005E+01 -1.00000E+00  1.26587E-01
      21    -1     0     0   511   501  0.000000000E+00  0.000000000E+00  1.847091269E+02  1.847091269E+02  0.000000000E+00  0.00000E+00  9.000E+00
      21    -1     0     0   501   502  0.000000000E+00  0.000000000E+00 -3.547378611E+02  3.547378611E+02  0.000000000E+00  0.00000E+00  9.000E+00
      25     1     1     2     0     0 -5.581469974E+01 -1.831866689E+01  7.930501936E+01  1.592643725E+02  1.250000000E+02  0.00000E+00  9.000E+00
      25     1     1     2     0     0  9.116660926E+01  9.792228233E+01 -2.243244798E+02  2.895627674E+02  1.250000000E+02  0.00000E+00  9.000E+00
      21     1     1     2   511   502 -3.535190952E+01 -7.960361545E+01 -2.500927380E+01  9.061984813E+01  1.066240300E-06  0.00000E+00  9.000E+00
#rwgt            1           1   3.9412946928013691E-002           8      414997           0
</event>
<event>
      5   9999  3.79277E-02  8.72775E+01 -1.00000E+00  1.26546E-01
      21    -1     0     0   512   501  0.000000000E+00  0.000000000E+00  2.759949416E+02  2.759949416E+02  0.000000000E+00  0.00000E+00  9.000E+00
      21    -1     0     0   501   502  0.000000000E+00  0.000000000E+00 -2.076933652E+02  2.076933652E+02  0.000000000E+00  0.00000E+00  9.000E+00
      25     1     1     2     0     0  5.481339376E+00 -1.820038099E+02 -2.133794902E+01  2.218912796E+02  1.250000000E+02  0.00000E+00  9.000E+00
      25     1     1     2     0     0 -1.356280438E+01  9.510130151E+01  6.914270405E+01  1.721450572E+02  1.250000000E+02  0.00000E+00  9.000E+00
      21     1     1     2   512   502  8.081464999E+00  8.690250834E+01  2.049682143E+01  8.965196998E+01  1.410503336E-06  0.00000E+00  9.000E+00
#rwgt            1           1   3.0108686838725078E-002           8      415296           0
</event>
<event>
      5   9999 -3.79277E-02  1.53772E+01 -1.00000E+00  1.76373E-01
      21    -1     0     0   511   501  0.000000000E+00  0.000000000E+00  1.445238710E+03  1.445238710E+03  0.000000000E+00  0.00000E+00  9.000E+00
      21    -1     0     0   501   502  0.000000000E+00  0.000000000E+00 -8.883954923E+01  8.883954923E+01  0.000000000E+00  0.00000E+00  9.000E+00
      25     1     1     2     0     0 -6.209307481E+01  3.057260324E+02  4.644117876E+02  5.732602073E+02  1.250000000E+02  0.00000E+00  9.000E+00
      25     1     1     2     0     0  4.678108506E+01 -3.043112992E+02  7.807363429E+02  8.485093245E+02  1.250000000E+02  0.00000E+00  9.000E+00
      21     1     1     2   511   502  1.531198975E+01 -1.414733270E+00  1.112510302E+02  1.123087273E+02  1.348699152E-06  0.00000E+00  9.000E+00
#rwgt            1           1 -0.11980633162233548                8      415361           0
</event>
<event>
      5   9999  3.79277E-02  7.72291E+01 -1.00000E+00  1.29095E-01
      21    -1     0     0   512   501  0.000000000E+00  0.000000000E+00  1.385180278E+03  1.385180278E+03  0.000000000E+00  0.00000E+00  9.000E+00
      21    -1     0     0   501   502  0.000000000E+00  0.000000000E+00 -1.438425192E+02  1.438425192E+02  0.000000000E+00  0.00000E+00  9.000E+00
      25     1     1     2     0     0 -7.085909862E+01 -1.103087022E+02  4.644598453E+02  4.985348228E+02  1.250000000E+02  0.00000E+00  9.000E+00
      25     1     1     2     0     0  1.222096438E+02  5.262459594E+01 -5.837716319E+01  1.916701289E+02  1.250000000E+02  0.00000E+00  9.000E+00
      21     1     1     2   512   502 -5.135054517E+01  5.768410631E+01  8.352550767E+02  8.388178454E+02  0.000000000E+00  0.00000E+00  9.000E+00
#rwgt            1           1   4.4920722843992129E-002           8      415548           0
</event>
<event>
      5   9999  3.79277E-02  4.53179E+01 -1.00000E+00  1.41556E-01
      21    -1     0     0   502   501  0.000000000E+00  0.000000000E+00  3.615030093E+02  3.615030093E+02  0.000000000E+00  0.00000E+00  9.000E+00
      21    -1     0     0   501   511  0.000000000E+00  0.000000000E+00 -2.973263998E+02  2.973263998E+02  0.000000000E+00  0.00000E+00  9.000E+00
      25     1     1     2     0     0  7.057642791E+01  1.490871380E+02 -5.654508582E+01  2.145468565E+02  1.250000000E+02  0.00000E+00  9.000E+00
      25     1     1     2     0     0 -1.150469547E+02 -1.403645324E+02  2.345086621E+02  3.218032261E+02  1.250000000E+02  0.00000E+00  9.000E+00
      21     1     1     2   502   511  4.447052680E+01 -8.722605555E+00 -1.137869668E+02  1.224793265E+02  0.000000000E+00  0.00000E+00  9.000E+00
#rwgt            1           1   2.6123122178518181E-002           8      415631           0
</event>
<event>
      5   9999  3.79277E-02  1.42007E+01 -1.00000E+00  1.79654E-01
      21    -1     0     0   502   501  0.000000000E+00  0.000000000E+00  6.164327530E+02  6.164327530E+02  0.000000000E+00  0.00000E+00  9.000E+00
       4    -1     0     0   501     0  0.000000000E+00  0.000000000E+00 -9.852772647E+01  9.852772647E+01  0.000000000E+00  0.00000E+00  9.000E+00
      25     1     1     2     0     0  1.059682488E+02  9.684607126E+01  2.798544501E+02  3.384552327E+02  1.250000000E+02  0.00000E+00  9.000E+00
      25     1     1     2     0     0 -1.201003413E+02 -9.545215313E+01  2.739219916E+02  3.379252329E+02  1.250000000E+02  0.00000E+00  9.000E+00
       4     1     1     2   502     0  1.413209254E+01 -1.393918127E+00 -3.587141519E+01  3.858001393E+01  9.536743164E-07  0.00000E+00  9.000E+00
#rwgt            1           1  0.10592399401683622                8      415803           0
</event>
<event>
      5   9999  3.79277E-02  2.33848E+01 -1.00000E+00  1.60955E-01
      21    -1     0     0   502   501  0.000000000E+00  0.000000000E+00  2.820490492E+02  2.820490492E+02  0.000000000E+00  0.00000E+00  9.000E+00
      21    -1     0     0   511   502  0.000000000E+00  0.000000000E+00 -5.681481492E+02  5.681481492E+02  0.000000000E+00  0.00000E+00  9.000E+00
      25     1     1     2     0     0  1.854597821E+02 -7.468830424E+01 -1.544130013E+02  2.818546586E+02  1.250000000E+02  0.00000E+00  9.000E+00
      25     1     1     2     0     0 -1.855015001E+02  9.807303017E+01  1.493825540E+02  2.863027649E+02  1.250000000E+02  0.00000E+00  9.000E+00
      21     1     1     2   511   501  4.171797644E-02 -2.338472593E+01 -2.810686527E+02  2.820397750E+02  0.000000000E+00  0.00000E+00  9.000E+00
#rwgt            1           1   4.0037389125018551E-002           8      416030           0
</event>
<event>
      5   9999  3.79277E-02  1.13255E+02 -1.00000E+00  1.21444E-01
      21    -1     0     0   502   501  0.000000000E+00  0.000000000E+00  2.873646611E+02  2.873646611E+02  0.000000000E+00  0.00000E+00  9.000E+00
      21    -1     0     0   512   502  0.000000000E+00  0.000000000E+00 -2.215809357E+02  2.215809357E+02  0.000000000E+00  0.00000E+00  9.000E+00
      25     1     1     2     0     0  1.651731344E+01  3.928132347E+01  9.225602842E+01  1.610963029E+02  1.250000000E+02  0.00000E+00  9.000E+00
      25     1     1     2     0     0 -1.431156242E+01 -1.525149965E+02  5.858508104E+01  2.062107095E+02  1.250000000E+02  0.00000E+00  9.000E+00
      21     1     1     2   512   501 -2.205751012E+00  1.132336730E+02 -8.505738406E+01  1.416385845E+02  2.523185073E-06  0.00000E+00  9.000E+00
#rwgt            1           1   4.4530873663170108E-002           8      416254           0
</event>
<event>
      5   9999  3.79277E-02  3.07743E+01 -1.00000E+00  1.52275E-01
      21    -1     0     0   502   501  0.000000000E+00  0.000000000E+00  1.368328752E+02  1.368328752E+02  0.000000000E+00  0.00000E+00  9.000E+00
      21    -1     0     0   501   511  0.000000000E+00  0.000000000E+00 -3.085429245E+02  3.085429245E+02  0.000000000E+00  0.00000E+00  9.000E+00
      25     1     1     2     0     0 -1.338517730E+02  6.452975561E+01 -1.217424253E+02  2.291868334E+02  1.250000000E+02  0.00000E+00  9.000E+00
      25     1     1     2     0     0  1.045417785E+02 -5.514993673E+01 -1.992780803E+01  1.731837651E+02  1.250000000E+02  0.00000E+00  9.000E+00
      21     1     1     2   502   511  2.930999455E+01 -9.379818876E+00 -3.003981603E+01  4.300520119E+01  3.371747881E-07  0.00000E+00  9.000E+00
#rwgt            1           1   2.6723081601054563E-002           8      416301           0
</event>
<event>
      5   9999  3.79277E-02  2.04611E+01 -1.00000E+00  1.65556E-01
      21    -1     0     0   502   501  0.000000000E+00  0.000000000E+00  2.655258858E+01  2.655258858E+01  0.000000000E+00  0.00000E+00  9.000E+00
      21    -1     0     0   501   512  0.000000000E+00  0.000000000E+00 -1.532892412E+03  1.532892412E+03  0.000000000E+00  0.00000E+00  9.000E+00
      25     1     1     2     0     0  9.898440500E+00 -5.968673786E+01 -2.487889984E+02  2.849235889E+02  1.250000000E+02  0.00000E+00  9.000E+00
      25     1     1     2     0     0  4.858951720E+00  7.385986784E+01 -6.258380938E+02  6.424773997E+02  1.250000000E+02  0.00000E+00  9.000E+00
      21     1     1     2   502   512 -1.475739222E+01 -1.417312998E+01 -6.317127311E+02  6.320440118E+02  7.629394531E-06  0.00000E+00  9.000E+00
#rwgt            1           1   4.1435383840581444E-002           8      416515           0
</event>
<event>
      5   9999  3.79277E-02  7.37385E+01 -1.00000E+00  1.30086E-01
      21    -1     0     0   502   501  0.000000000E+00  0.000000000E+00  5.355149152E+02  5.355149152E+02  0.000000000E+00  0.00000E+00  9.000E+00
      21    -1     0     0   511   502  0.000000000E+00  0.000000000E+00 -5.966923783E+02  5.966923783E+02  0.000000000E+00  0.00000E+00  9.000E+00
      25     1     1     2     0     0  2.034482655E+02  1.029090162E+02  3.995503455E+02  4.767042490E+02  1.250000000E+02  0.00000E+00  9.000E+00
      25     1     1     2     0     0 -2.626342931E+02 -5.892746850E+01 -1.431811978E+02  3.295073199E+02  1.250000000E+02  0.00000E+00  9.000E+00
      21     1     1     2   511   501  5.918602755E+01 -4.398154773E+01 -3.175466108E+02  3.259957246E+02  6.607249480E-06  0.00000E+00  9.000E+00
#rwgt            1           1   3.9720067166942971E-002           8      416720           0
</event>
<event>
      5   9999  3.79277E-02  3.78877E+01 -1.00000E+00  1.46317E-01
      21    -1     0     0   502   501  0.000000000E+00  0.000000000E+00  1.033469073E+03  1.033469073E+03  0.000000000E+00  0.00000E+00  9.000E+00
      21    -1     0     0   512   502  0.000000000E+00  0.000000000E+00 -4.233123620E+02  4.233123620E+02  0.000000000E+00  0.00000E+00  9.000E+00
      25     1     1     2     0     0 -1.544191461E+02 -8.449617643E+01  4.042459118E+02  4.582844463E+02  1.250000000E+02  0.00000E+00  9.000E+00
      25     1     1     2     0     0  1.465306641E+02  1.215535487E+02  5.796778787E+02  6.228145340E+02  1.250000000E+02  0.00000E+00  9.000E+00
      21     1     1     2   512   501  7.888482019E+00 -3.705737223E+01 -3.737670796E+02  3.756824547E+02  7.629394531E-06  0.00000E+00  9.000E+00
#rwgt            1           1   4.3061660204046455E-002           8      416876           0
</event>
<event>
      5   9999  3.79277E-02  8.95573E+01 -1.00000E+00  1.26021E-01
      21    -1     0     0   502   501  0.000000000E+00  0.000000000E+00  1.248120433E+03  1.248120433E+03  0.000000000E+00  0.00000E+00  9.000E+00
      21    -1     0     0   511   502  0.000000000E+00  0.000000000E+00 -5.868681265E+01  5.868681265E+01  0.000000000E+00  0.00000E+00  9.000E+00
      25     1     1     2     0     0  5.801336213E+01 -1.726503703E+02  8.034058189E+02  8.332224255E+02  1.250000000E+02  0.00000E+00  9.000E+00
      25     1     1     2     0     0 -9.316339370E+01  9.027933376E+01  2.965879762E+02  3.470147024E+02  1.250000000E+02  0.00000E+00  9.000E+00
      21     1     1     2   511   501  3.515003157E+01  8.237103655E+01  8.943982541E+01  1.265701179E+02  1.348699152E-06  0.00000E+00  9.000E+00
#rwgt            1           1   3.8498737730059546E-002           8      416976           0
</event>
<event>
      5   9999  3.79277E-02  4.29563E+01 -1.00000E+00  1.42945E-01
      21    -1     0     0   502   512  0.000000000E+00  0.000000000E+00  9.721513129E+02  9.721513129E+02  0.000000000E+00  0.00000E+00  9.000E+00
      21    -1     0     0   501   502  0.000000000E+00  0.000000000E+00 -7.865180196E+01  7.865180196E+01  0.000000000E+00  0.00000E+00  9.000E+00
      25     1     1     2     0     0 -1.629815124E+02 -4.149709249E+01  1.966414623E+02  2.873636142E+02  1.250000000E+02  0.00000E+00  9.000E+00
      25     1     1     2     0     0  2.002348405E+02  2.010942841E+01  4.111347881E+02  4.745052101E+02  1.250000000E+02  0.00000E+00  9.000E+00
      21     1     1     2   501   512 -3.725332810E+01  2.138766408E+01  2.857232605E+02  2.889342905E+02  0.000000000E+00  0.00000E+00  9.000E+00
#rwgt            1           1  0.28940402011079475                8      417084           0
</event>
<event>
      5   9999  3.96923E-02  1.78729E+02 -1.00000E+00  1.13455E-01
      21    -1     0     0   511   501  0.000000000E+00  0.000000000E+00  7.388824921E+01  7.388824921E+01  0.000000000E+00  0.00000E+00  9.000E+00
      21    -1     0     0   501   502  0.000000000E+00  0.000000000E+00 -2.262940907E+03  2.262940907E+03  0.000000000E+00  0.00000E+00  9.000E+00
      25     1     1     2     0     0  8.202957061E+01 -6.034980321E+01 -1.840011388E+03  1.847061953E+03  1.250000000E+02  0.00000E+00  9.000E+00
      25     1     1     2     0     0  6.651634886E+01 -3.903851934E+01 -2.370011652E+02  2.788242869E+02  1.250000000E+02  0.00000E+00  9.000E+00
      21     1     1     2   511   502 -1.485459195E+02  9.938832254E+01 -1.120401037E+02  2.109429157E+02  4.862803949E-06  0.00000E+00  9.000E+00
#rwgt            1           1  0.19261521800293416                8      417190           0
</event>
<event>
      5   9999  3.79277E-02  4.15834E+01 -1.00000E+00  1.43802E-01
      21    -1     0     0   502   501  0.000000000E+00  0.000000000E+00  3.240478606E+02  3.240478606E+02  0.000000000E+00  0.00000E+00  9.000E+00
      21    -1     0     0   512   502  0.000000000E+00  0.000000000E+00 -4.435162293E+02  4.435162293E+02  0.000000000E+00  0.00000E+00  9.000E+00
      25     1     1     2     0     0 -4.625354341E+01 -1.282846122E+02  2.572952262E+02  3.168945652E+02  1.250000000E+02  0.00000E+00  9.000E+00
      25     1     1     2     0     0  6.026993062E+00  1.177487596E+02 -1.772468719E+02  2.468654464E+02  1.250000000E+02  0.00000E+00  9.000E+00
      21     1     1     2   512   501  4.022655035E+01  1.053585268E+01 -1.995167231E+02  2.038040783E+02  0.000000000E+00  0.00000E+00  9.000E+00
#rwgt            1           1   3.4914158080290088E-002           8      417310           0
</event>
<event>
      5   9999  3.79277E-02  1.36554E+02 -1.00000E+00  1.18033E-01
      21    -1     0     0   502   501  0.000000000E+00  0.000000000E+00  3.130884111E+02  3.130884111E+02  0.000000000E+00  0.00000E+00  9.000E+00
      21    -1     0     0   501   511  0.000000000E+00  0.000000000E+00 -4.744341216E+02  4.744341216E+02  0.000000000E+00  0.00000E+00  9.000E+00
      25     1     1     2     0     0 -2.154386302E+02  6.332095631E+00  1.961394322E+02  3.170955308E+02  1.250000000E+02  0.00000E+00  9.000E+00
      25     1     1     2     0     0  9.560986847E+01  5.915169626E+01 -1.772058217E+02  2.442684453E+02  1.250000000E+02  0.00000E+00  9.000E+00
      21     1     1     2   502   511  1.198287617E+02 -6.548379190E+01 -1.802793210E+02  2.261585566E+02  1.907348633E-06  0.00000E+00  9.000E+00
#rwgt            2          11   2.1632858556023420E-003           8      417569           0
</event>
<event>
      5   9999  3.79277E-02  1.57434E+01 -1.00000E+00  1.75427E-01
      21    -1     0     0   502   501  0.000000000E+00  0.000000000E+00  5.309751716E+01  5.309751716E+01  0.000000000E+00  0.00000E+00  9.000E+00
      21    -1     0     0   501   512  0.000000000E+00  0.000000000E+00 -7.740604261E+02  7.740604261E+02  0.000000000E+00  0.00000E+00  9.000E+00
      25     1     1     2     0     0  8.765265265E+01  3.009758326E+01 -4.718961350E+02  4.968901430E+02  1.250000000E+02  0.00000E+00  9.000E+00
      25     1     1     2     0     0 -7.191052982E+01 -2.990010534E+01 -9.468815611E+01  1.750885133E+02  1.250000000E+02  0.00000E+00  9.000E+00
      21     1     1     2   502   512 -1.574212283E+01 -1.974779250E-01 -1.543786179E+02  1.551792869E+02  1.907348633E-06  0.00000E+00  9.000E+00
#rwgt            1           1   5.5911554486785808E-002           8      417619           0
</event>
<event>
      5   9999  3.79277E-02  6.97744E+01 -1.00000E+00  1.31292E-01
      21    -1     0     0   502   501  0.000000000E+00  0.000000000E+00  1.107166205E+03  1.107166205E+03  0.000000000E+00  0.00000E+00  9.000E+00
      21    -1     0     0   511   502  0.000000000E+00  0.000000000E+00 -1.174646034E+02  1.174646034E+02  0.000000000E+00  0.00000E+00  9.000E+00
      25     1     1     2     0     0 -3.779034388E+01 -1.446490020E+02  7.982318494E+02  8.216754403E+02  1.250000000E+02  0.00000E+00  9.000E+00
      25     1     1     2     0     0 -2.983564397E+01  1.274677089E+02  2.522144988E+02  3.104437725E+02  1.250000000E+02  0.00000E+00  9.000E+00
      21     1     1     2   511   501  6.762598785E+01  1.718129307E+01 -6.074474659E+01  9.251159551E+01  1.651812370E-06  0.00000E+00  9.000E+00
#rwgt            1           1   2.9161024067650639E-002           8      417814           0
</event>
<event>
      5   9999  3.79277E-02  7.21774E+01 -1.00000E+00  1.30550E-01
      21    -1     0     0   502   501  0.000000000E+00  0.000000000E+00  4.171080102E+02  4.171080102E+02  0.000000000E+00  0.00000E+00  9.000E+00
      21    -1     0     0   512   502  0.000000000E+00  0.000000000E+00 -1.048452658E+03  1.048452658E+03  0.000000000E+00  0.00000E+00  9.000E+00
      25     1     1     2     0     0  5.278235251E+00  1.641338649E+02  9.999646068E+01  2.293296263E+02  1.250000000E+02  0.00000E+00  9.000E+00
      25     1     1     2     0     0 -9.292010142E+00 -9.206812944E+01  2.270048019E+02  2.751709686E+02  1.250000000E+02  0.00000E+00  9.000E+00
      21     1     1     2   512   501  4.013774891E+00 -7.206573542E+01 -9.583459099E+02  9.610600729E+02  0.000000000E+00  0.00000E+00  9.000E+00
#rwgt            1           1   4.2162085252674612E-002           8      417919           0
</event>
<event>
      5   9999  3.79277E-02  8.78112E+01 -1.00000E+00  1.26421E-01
      21    -1     0     0   502   501  0.000000000E+00  0.000000000E+00  4.586126059E+02  4.586126059E+02  0.000000000E+00  0.00000E+00  9.000E+00
       2    -1     0     0   501     0  0.000000000E+00  0.000000000E+00 -1.847256750E+03  1.847256750E+03  0.000000000E+00  0.00000E+00  9.000E+00
      25     1     1     2     0     0 -8.403085150E+01  9.670226921E+01  3.228054260E+02  3.691081900E+02  1.250000000E+02  0.00000E+00  9.000E+00
      25     1     1     2     0     0  1.705563220E+02 -8.173037711E+01 -3.677443695E+00  2.267329643E+02  1.250000000E+02  0.00000E+00  9.000E+00
       2     1     1     2   502     0 -8.652547050E+01 -1.497189210E+01 -1.707772126E+03  1.710028201E+03  2.157918644E-05  0.00000E+00  9.000E+00
#rwgt            1           1   3.0675792498466230E-002           8      418048           0
</event>
<event>
      5   9999  3.79277E-02  1.98328E+01 -1.00000E+00  1.66670E-01
       1    -1     0     0   502     0  0.000000000E+00  0.000000000E+00  1.545947852E+03  1.545947852E+03  0.000000000E+00  0.00000E+00  9.000E+00
      21    -1     0     0   501   502  0.000000000E+00  0.000000000E+00 -9.846157385E+01  9.846157385E+01  0.000000000E+00  0.00000E+00  9.000E+00
      25     1     1     2     0     0 -7.926523748E+01  1.324155693E+02  1.686431353E+02  2.605424494E+02  1.250000000E+02  0.00000E+00  9.000E+00
      25     1     1     2     0     0  8.516398351E+01 -1.134802987E+02  1.180743500E+02  2.229287653E+02  1.250000000E+02  0.00000E+00  9.000E+00
       1     1     1     2   501     0 -5.898746033E+00 -1.893527060E+01  1.160768793E+03  1.160938211E+03  0.000000000E+00  0.00000E+00  9.000E+00
#rwgt            1           1   3.1907501788541556E-002           8      418143           0
</event>
<event>
      5   9999  3.79277E-02  4.49037E+01 -1.00000E+00  1.41793E-01
      21    -1     0     0   502   501  0.000000000E+00  0.000000000E+00  1.062385248E+03  1.062385248E+03  0.000000000E+00  0.00000E+00  9.000E+00
      21    -1     0     0   501   511  0.000000000E+00  0.000000000E+00 -7.805556921E+01  7.805556921E+01  0.000000000E+00  0.00000E+00  9.000E+00
      25     1     1     2     0     0  7.806581371E+01  2.238690693E+02  4.594965859E+02  5.319527648E+02  1.250000000E+02  0.00000E+00  9.000E+00
      25     1     1     2     0     0 -4.271184733E+01 -1.961844419E+02  5.083123464E+02  5.606416669E+02  1.250000000E+02  0.00000E+00  9.000E+00
      21     1     1     2   502   511 -3.535396638E+01 -2.768462747E+01  1.652074627E+01  4.784638538E+01  9.233911863E-07  0.00000E+00  9.000E+00
#rwgt            1           1   4.1916703860621712E-002           8      418291           0
</event>
<event>
      5   9999  3.79277E-02  1.81934E+01 -1.00000E+00  1.69835E-01
      21    -1     0     0   502   501  0.000000000E+00  0.000000000E+00  3.618990832E+02  3.618990832E+02  0.000000000E+00  0.00000E+00  9.000E+00
      21    -1     0     0   512   502  0.000000000E+00  0.000000000E+00 -2.239257998E+02  2.239257998E+02  0.000000000E+00  0.00000E+00  9.000E+00
      25     1     1     2     0     0 -1.964845082E+02  1.374774231E+02  1.513826074E+02  3.099159525E+02  1.250000000E+02  0.00000E+00  9.000E+00
      25     1     1     2     0     0  1.894363963E+02 -1.207047453E+02 -9.155160488E+00  2.572248059E+02  1.250000000E+02  0.00000E+00  9.000E+00
      21     1     1     2   512   501  7.048111827E+00 -1.677267782E+01 -4.254163538E+00  1.868412452E+01  4.986882368E-07  0.00000E+00  9.000E+00
#rwgt            1           1   4.5267470366582963E-002           8      418412           0
</event>
<event>
      5   9999  3.79277E-02  4.19005E+01 -1.00000E+00  1.43601E-01
      21    -1     0     0   511   501  0.000000000E+00  0.000000000E+00  2.414994598E+02  2.414994598E+02  0.000000000E+00  0.00000E+00  9.000E+00
      21    -1     0     0   501   502  0.000000000E+00  0.000000000E+00 -2.784313531E+02  2.784313531E+02  0.000000000E+00  0.00000E+00  9.000E+00
      25     1     1     2     0     0  7.500124839E+01 -2.169776673E+01  7.238747789E+01  1.641978298E+02  1.250000000E+02  0.00000E+00  9.000E+00
      25     1     1     2     0     0 -6.622807594E+01  6.266953661E+01 -2.017507734E+02  2.542479173E+02  1.250000000E+02  0.00000E+00  9.000E+00
      21     1     1     2   511   502 -8.773172446E+00 -4.097176988E+01  9.243140226E+01  1.014850659E+02  1.348699152E-06  0.00000E+00  9.000E+00
#rwgt            1           1   3.7467822679284515E-002           8      418725           0
</event>
<event>
      5   9999  3.79277E-02  1.17759E+01 -1.00000E+00  1.87893E-01
      21    -1     0     0   502   501  0.000000000E+00  0.000000000E+00  1.928967530E+02  1.928967530E+02  0.000000000E+00  0.00000E+00  9.000E+00
      21    -1     0     0   512   502  0.000000000E+00  0.000000000E+00 -2.430037430E+02  2.430037430E+02  0.000000000E+00  0.00000E+00  9.000E+00
      25     1     1     2     0     0  9.253134438E+01 -1.284978943E+02 -3.276049851E+01  2.043820168E+02  1.250000000E+02  0.00000E+00  9.000E+00
      25     1     1     2     0     0 -1.009046385E+02  1.367780331E+02 -5.270328584E-01  2.109863838E+02  1.250000000E+02  0.00000E+00  9.000E+00
      21     1     1     2   512   501  8.373294091E+00 -8.280138767E+00 -1.681945860E+01  2.053209535E+01  2.384185791E-07  0.00000E+00  9.000E+00
#rwgt            1           1   3.1756511585203755E-002           8      418908           0
</event>
<event>
      5   9999  3.79277E-02  6.45902E+01 -1.00000E+00  1.33015E-01
      21    -1     0     0   502   511  0.000000000E+00  0.000000000E+00  1.073072947E+03  1.073072947E+03  0.000000000E+00  0.00000E+00  9.000E+00
      21    -1     0     0   501   502  0.000000000E+00  0.000000000E+00 -5.098985502E+02  5.098985502E+02  0.000000000E+00  0.00000E+00  9.000E+00
      25     1     1     2     0     0 -4.138916852E+02 -2.736633865E+02  4.045054590E+01  5.132827903E+02  1.250000000E+02  0.00000E+00  9.000E+00
      25     1     1     2     0     0  3.898969026E+02  2.136955349E+02 -7.550203216E+01  4.679860395E+02  1.250000000E+02  0.00000E+00  9.000E+00
      21     1     1     2   501   511  2.399478253E+01  5.996785162E+01  5.982258834E+02  6.017026678E+02  7.629394531E-06  0.00000E+00  9.000E+00
#rwgt            1           1  0.13837196601134014                8      419198           0
</event>
<event>
      5   9999  3.79277E-02  7.23774E+01 -1.00000E+00  1.30490E-01
      21    -1     0     0   502   501  0.000000000E+00  0.000000000E+00  3.908502953E+02  3.908502953E+02  0.000000000E+00  0.00000E+00  9.000E+00
       2    -1     0     0   501     0  0.000000000E+00  0.000000000E+00 -4.775205999E+02  4.775205999E+02  0.000000000E+00  0.00000E+00  9.000E+00
      25     1     1     2     0     0  1.600939976E+02  8.211324307E+01  3.192437578E+02  3.871876155E+02  1.250000000E+02  0.00000E+00  9.000E+00
      25     1     1     2     0     0 -9.397185144E+01 -5.267942505E+01 -1.811023896E+02  2.450079717E+02  1.250000000E+02  0.00000E+00  9.000E+00
       2     1     1     2   502     0 -6.612214616E+01 -2.943381802E+01 -2.248116728E+02  2.361753079E+02  3.814697266E-06  0.00000E+00  9.000E+00
#rwgt            1           1   4.1195761005588506E-002           8      419333           0
</event>
<event>
      5   9999  3.79277E-02  5.26242E+01 -1.00000E+00  1.37820E-01
      21    -1     0     0   502   501  0.000000000E+00  0.000000000E+00  1.080577780E+03  1.080577780E+03  0.000000000E+00  0.00000E+00  9.000E+00
      21    -1     0     0   511   502  0.000000000E+00  0.000000000E+00 -1.267756503E+02  1.267756503E+02  0.000000000E+00  0.00000E+00  9.000E+00
      25     1     1     2     0     0  1.522180720E+02  1.621467406E+02  1.936874396E+02  3.203150499E+02  1.250000000E+02  0.00000E+00  9.000E+00
      25     1     1     2     0     0 -9.995403900E+01 -1.560006403E+02  7.937284025E+02  8.245949227E+02  1.250000000E+02  0.00000E+00  9.000E+00
      21     1     1     2   511   501 -5.226403298E+01 -6.146100387E+00 -3.361371259E+01  6.244345737E+01  1.430511475E-06  0.00000E+00  9.000E+00
#rwgt            1           1   3.5808581563577531E-002           8      419506           0
</event>
<event>
      5   9999  3.79277E-02  3.96334E+01 -1.00000E+00  1.45089E-01
      21    -1     0     0   512   501  0.000000000E+00  0.000000000E+00  8.593875692E+02  8.593875692E+02  0.000000000E+00  0.00000E+00  9.000E+00
      21    -1     0     0   501   502  0.000000000E+00  0.000000000E+00 -2.676725151E+02  2.676725151E+02  0.000000000E+00  0.00000E+00  9.000E+00
      25     1     1     2     0     0 -1.143252145E+02  1.085256854E+02 -1.927671459E+01  2.021006452E+02  1.250000000E+02  0.00000E+00  9.000E+00
      25     1     1     2     0     0  7.933741870E+01 -1.271444357E+02 -9.556178423E+01  2.172951636E+02  1.250000000E+02  0.00000E+00  9.000E+00
      21     1     1     2   512   502  3.498779579E+01  1.861875029E+01  7.065535529E+02  7.076642755E+02  7.629394531E-06  0.00000E+00  9.000E+00
#rwgt            1           1   3.5647910706994412E-002           8      419609           0
</event>
<event>
      5   9999  3.79277E-02  7.74725E+01 -1.00000E+00  1.29028E-01
      21    -1     0     0   502   511  0.000000000E+00  0.000000000E+00  2.513905177E+02  2.513905177E+02  0.000000000E+00  0.00000E+00  9.000E+00
      21    -1     0     0   501   502  0.000000000E+00  0.000000000E+00 -3.264115905E+02  3.264115905E+02  0.000000000E+00  0.00000E+00  9.000E+00
      25     1     1     2     0     0  8.472680195E+01 -1.819397724E+02 -9.823676595E+01  2.560393992E+02  1.250000000E+02  0.00000E+00  9.000E+00
      25     1     1     2     0     0 -1.436370502E+02  1.316250839E+02 -2.122578642E+01  2.324484866E+02  1.250000000E+02  0.00000E+00  9.000E+00
      21     1     1     2   501   511  5.891024825E+01  5.031468846E+01  4.444147960E+01  8.931422246E+01  1.066240300E-06  0.00000E+00  9.000E+00
#rwgt            1           1   3.3082057430494430E-002           8      419756           0
</event>
<event>
      5   9999  3.79277E-02  2.00522E+01 -1.00000E+00  1.66276E-01
      21    -1     0     0   502   512  0.000000000E+00  0.000000000E+00  6.305333085E+02  6.305333085E+02  0.000000000E+00  0.00000E+00  9.000E+00
      21    -1     0     0   501   502  0.000000000E+00  0.000000000E+00 -1.159301078E+02  1.159301078E+02  0.000000000E+00  0.00000E+00  9.000E+00
      25     1     1     2     0     0  4.190869409E+01  2.105393152E+02  1.824984887E+02  3.082431512E+02  1.250000000E+02  0.00000E+00  9.000E+00
      25     1     1     2     0     0 -4.818901163E+01 -2.295826832E+02  3.107520560E+02  4.089281472E+02  1.250000000E+02  0.00000E+00  9.000E+00
      21     1     1     2   501   512  6.280317539E+00  1.904336800E+01  2.135265601E+01  2.929211791E+01  0.000000000E+00  0.00000E+00  9.000E+00
#rwgt            1           1   4.4213675199806672E-002           8      420013           0
</event>
<event>
      5   9999  3.96718E-02  5.83768E+01 -1.00000E+00  1.35343E-01
      21    -1     0     0   502   501  0.000000000E+00  0.000000000E+00  2.253368570E+02  2.253368570E+02  0.000000000E+00  0.00000E+00  9.000E+00
      21    -1     0     0   501   511  0.000000000E+00  0.000000000E+00 -8.651418160E+02  8.651418160E+02  0.000000000E+00  0.00000E+00  9.000E+00
      25     1     1     2     0     0  3.022517807E+02 -2.410206477E+02 -3.105948536E+02  5.114110427E+02  1.250000000E+02  0.00000E+00  9.000E+00
      25     1     1     2     0     0 -2.601173954E+02  2.814253812E+02 -2.303842569E+02  4.642878530E+02  1.250000000E+02  0.00000E+00  9.000E+00
      21     1     1     2   502   511 -4.213438527E+01 -4.040473359E+01 -9.882584861E+01  1.147797773E+02  1.348699152E-06  0.00000E+00  9.000E+00
#rwgt            1           1  0.36649847426241122                8      420308           0
</event>
<event>
      5   9999  3.79277E-02  6.77668E+01 -1.00000E+00  1.31938E-01
      21    -1     0     0   502   512  0.000000000E+00  0.000000000E+00  1.914575231E+03  1.914575231E+03  0.000000000E+00  0.00000E+00  9.000E+00
      21    -1     0     0   501   502  0.000000000E+00  0.000000000E+00 -3.606963129E+02  3.606963129E+02  0.000000000E+00  0.00000E+00  9.000E+00
      25     1     1     2     0     0  2.766435300E+02 -1.468377976E+02 -8.640994842E+01  3.481158725E+02  1.250000000E+02  0.00000E+00  9.000E+00
      25     1     1     2     0     0 -2.120191635E+02  1.672347258E+02  1.236425257E+01  2.978211778E+02  1.250000000E+02  0.00000E+00  9.000E+00
      21     1     1     2   501   512 -6.462436653E+01 -2.039692823E+01  1.627924614E+03  1.629334494E+03  2.157918644E-05  0.00000E+00  9.000E+00
#rwgt            1           1   3.0432263405889479E-002           8      420424           0
</event>
<event>
      5   9999  3.79277E-02  7.05849E+00 -1.00000E+00  2.15044E-01
      21    -1     0     0   502   501  0.000000000E+00  0.000000000E+00  7.775292670E+01  7.775292670E+01  0.000000000E+00  0.00000E+00  9.000E+00
      21    -1     0     0   511   502  0.000000000E+00  0.000000000E+00 -6.702655783E+02  6.702655783E+02  0.000000000E+00  0.00000E+00  9.000E+00
      25     1     1     2     0     0  5.040713873E+01 -5.101234911E+01 -8.770394116E+00  1.443781812E+02  1.250000000E+02  0.00000E+00  9.000E+00
      25     1     1     2     0     0 -5.599648369E+01  4.670172398E+01 -5.286950646E+02  5.481424345E+02  1.250000000E+02  0.00000E+00  9.000E+00
      21     1     1     2   511   501  5.589344952E+00  4.310625138E+00 -5.504719294E+01  5.549788930E+01  1.168007728E-06  0.00000E+00  9.000E+00
#rwgt            1           1   4.6593008492586498E-002           8      420581           0
</event>
<event>
      5   9999  3.79277E-02  2.77711E+01 -1.00000E+00  1.55406E-01
      21    -1     0     0   502   501  0.000000000E+00  0.000000000E+00  9.680962338E+01  9.680962338E+01  0.000000000E+00  0.00000E+00  9.000E+00
      21    -1     0     0   501   512  0.000000000E+00  0.000000000E+00 -1.361368695E+03  1.361368695E+03  0.000000000E+00  0.00000E+00  9.000E+00
      25     1     1     2     0     0  2.059621644E+02  3.768885802E+01 -3.864036564E+02  4.569175515E+02  1.250000000E+02  0.00000E+00  9.000E+00
      25     1     1     2     0     0 -2.193307796E+02 -1.334722056E+01 -1.995053748E+02  3.220427514E+02  1.250000000E+02  0.00000E+00  9.000E+00
      21     1     1     2   502   512  1.336861516E+01 -2.434163747E+01 -6.786500406E+02  6.792180157E+02  7.629394531E-06  0.00000E+00  9.000E+00
#rwgt            1           1   3.9740870981896839E-002           8      420880           0
</event>
<event>
      5   9999  3.79277E-02  2.76159E+01 -1.00000E+00  1.55580E-01
      21    -1     0     0   511   501  0.000000000E+00  0.000000000E+00  1.291721484E+02  1.291721484E+02  0.000000000E+00  0.00000E+00  9.000E+00
      21    -1     0     0   501   502  0.000000000E+00  0.000000000E+00 -5.380207476E+02  5.380207476E+02  0.000000000E+00  0.00000E+00  9.000E+00
      25     1     1     2     0     0 -7.722613111E+01 -4.333254482E+01 -4.339096414E+02  4.601566707E+02  1.250000000E+02  0.00000E+00  9.000E+00
      25     1     1     2     0     0  7.287633356E+01  7.060374526E+01 -1.127853500E+01  1.613940959E+02  1.250000000E+02  0.00000E+00  9.000E+00
      21     1     1     2   511   502  4.349797542E+00 -2.727120044E+01  3.633957711E+01  4.564212941E+01  4.768371582E-07  0.00000E+00  9.000E+00
#rwgt            1           1   5.0723973509897838E-002           8      421032           0
</event>
<event>
      5   9999  3.79277E-02  7.40788E+01 -1.00000E+00  1.29987E-01
      21    -1     0     0   502   512  0.000000000E+00  0.000000000E+00  1.725957027E+02  1.725957027E+02  0.000000000E+00  0.00000E+00  9.000E+00
      21    -1     0     0   501   502  0.000000000E+00  0.000000000E+00 -9.454018999E+02  9.454018999E+02  0.000000000E+00  0.00000E+00  9.000E+00
      25     1     1     2     0     0  2.997220361E+02 -5.947750293E+01 -2.442646021E+02  4.106836594E+02  1.250000000E+02  0.00000E+00  9.000E+00
      25     1     1     2     0     0 -3.497209223E+02  4.816978594E+00 -5.100629723E+02  6.309652625E+02  1.250000000E+02  0.00000E+00  9.000E+00
      21     1     1     2   501   512  4.999888620E+01  5.466052434E+01 -1.847862280E+01  7.634868068E+01  1.634515429E-06  0.00000E+00  9.000E+00
#rwgt            1           1   3.4350684133907239E-002           8      421147           0
</event>
<event>
      5   9999  3.79277E-02  2.08947E+02 -1.00000E+00  1.10960E-01
      21    -1     0     0   502   511  0.000000000E+00  0.000000000E+00  6.048057421E+01  6.048057421E+01  0.000000000E+00  0.00000E+00  9.000E+00
      21    -1     0     0   501   502  0.000000000E+00  0.000000000E+00 -1.645305710E+03  1.645305710E+03  0.000000000E+00  0.00000E+00  9.000E+00
      25     1     1     2     0     0  5.945722245E+01 -5.770471481E+01 -6.432297311E+02  6.604804936E+02  1.250000000E+02  0.00000E+00  9.000E+00
      25     1     1     2     0     0 -1.270523201E+02 -1.400066745E+02 -6.353864572E+02  6.745999636E+02  1.250000000E+02  0.00000E+00  9.000E+00
      21     1     1     2   501   511  6.759509763E+01  1.977113893E+02 -3.062089478E+02  3.707058273E+02  5.394796609E-06  0.00000E+00  9.000E+00
#rwgt            1           1   3.6986844795590522E-002           8      421286           0
</event>
<event>
      5   9999  3.79277E-02  5.27257E+01 -1.00000E+00  1.37773E-01
      21    -1     0     0   502   501  0.000000000E+00  0.000000000E+00  1.267354801E+02  1.267354801E+02  0.000000000E+00  0.00000E+00  9.000E+00
      21    -1     0     0   512   502  0.000000000E+00  0.000000000E+00 -3.525373671E+02  3.525373671E+02  0.000000000E+00  0.00000E+00  9.000E+00
      25     1     1     2     0     0  6.116400969E+01 -1.813673021E+01 -1.940732491E+02  2.394982319E+02  1.250000000E+02  0.00000E+00  9.000E+00
      25     1     1     2     0     0 -1.120412703E+02  3.197540872E+01  1.196063297E+01  1.713001160E+02  1.250000000E+02  0.00000E+00  9.000E+00
      21     1     1     2   512   501  5.087726062E+01 -1.383867851E+01 -4.368927091E+01  6.847449936E+01  4.768371582E-07  0.00000E+00  9.000E+00
#rwgt            1           1   4.0420223424595308E-002           8      421369           0
</event>
<event>
      5   9999  3.79277E-02  2.75310E+01 -1.00000E+00  1.55676E-01
      21    -1     0     0   511   501  0.000000000E+00  0.000000000E+00  4.732638848E+02  4.732638848E+02  0.000000000E+00  0.00000E+00  9.000E+00
      21    -1     0     0   501   502  0.000000000E+00  0.000000000E+00 -1.435156029E+02  1.435156029E+02  0.000000000E+00  0.00000E+00  9.000E+00
      25     1     1     2     0     0  1.745592912E+02 -6.696821831E+01  6.130843660E+01  2.331081569E+02  1.250000000E+02  0.00000E+00  9.000E+00
      25     1     1     2     0     0 -2.018394234E+02  6.326036992E+01  2.500825818E+02  3.505814098E+02  1.250000000E+02  0.00000E+00  9.000E+00
      21     1     1     2   511   502  2.728013215E+01  3.707848384E+00  1.835726352E+01  3.308992103E+01  2.384185791E-07  0.00000E+00  9.000E+00
#rwgt            1           1   4.2965378206761974E-002           8      421594           0
</event>
<event>
      5   9999  3.79277E-02  1.71082E+01 -1.00000E+00  1.72167E-01
      21    -1     0     0   502   501  0.000000000E+00  0.000000000E+00  2.557190511E+02  2.557190511E+02  0.000000000E+00  0.00000E+00  9.000E+00
      21    -1     0     0   501   512  0.000000000E+00  0.000000000E+00 -2.672783864E+02  2.672783864E+02  0.000000000E+00  0.00000E+00  9.000E+00
      25     1     1     2     0     0 -8.334332817E+01 -1.495529571E+02  2.202220548E+01  2.131247871E+02  1.250000000E+02  0.00000E+00  9.000E+00
      25     1     1     2     0     0  1.003340695E+02  1.515546461E+02  4.863951416E+01  2.258905456E+02  1.250000000E+02  0.00000E+00  9.000E+00
      21     1     1     2   502   512 -1.699074134E+01 -2.001688944E+00 -8.222105492E+01  8.398210477E+01  1.348699152E-06  0.00000E+00  9.000E+00
#rwgt            1           1   3.6057198740708570E-002           8      421797           0
</event>
<event>
      5   9999  3.79277E-02  2.34500E+01 -1.00000E+00  1.60861E-01
      21    -1     0     0   502   511  0.000000000E+00  0.000000000E+00  4.103298497E+02  4.103298497E+02  0.000000000E+00  0.00000E+00  9.000E+00
      21    -1     0     0   501   502  0.000000000E+00  0.000000000E+00 -1.364726985E+02  1.364726985E+02  0.000000000E+00  0.00000E+00  9.000E+00
      25     1     1     2     0     0  3.212204930E+01 -8.736840173E+01 -5.965559348E+01  1.668797576E+02  1.250000000E+02  0.00000E+00  9.000E+00
      25     1     1     2     0     0 -5.422835278E+01  7.954443505E+01  2.778285138E+02  3.195022918E+02  1.250000000E+02  0.00000E+00  9.000E+00
      21     1     1     2   501   511  2.210630348E+01  7.823966685E+00  5.568423089E+01  6.042049882E+01  0.000000000E+00  0.00000E+00  9.000E+00
#rwgt            1           1   3.8458878162486464E-002           8      422010           0
</event>
<event>
      5   9999  3.79277E-02  1.82573E+01 -1.00000E+00  1.69704E-01
      21    -1     0     0   502   512  0.000000000E+00  0.000000000E+00  2.000886634E+02  2.000886634E+02  0.000000000E+00  0.00000E+00  9.000E+00
      21    -1     0     0   501   502  0.000000000E+00  0.000000000E+00 -7.552198163E+02  7.552198163E+02  0.000000000E+00  0.00000E+00  9.000E+00
      25     1     1     2     0     0  1.580334923E+02 -2.419540210E+02 -5.275971164E+02  6.144103272E+02  1.250000000E+02  0.00000E+00  9.000E+00
      25     1     1     2     0     0 -1.435313110E+02  2.530451971E+02 -3.946888940E+01  3.190860421E+02  1.250000000E+02  0.00000E+00  9.000E+00
      21     1     1     2   501   512 -1.450218132E+01 -1.109117611E+01  1.193485277E+01  2.181211043E+01  5.057621821E-07  0.00000E+00  9.000E+00
#rwgt            1           1   2.7594875514034958E-002           8      422126           0
</event>
<event>
      5   9999  3.79277E-02  4.20531E+01 -1.00000E+00  1.43505E-01
      21    -1     0     0   502   501  0.000000000E+00  0.000000000E+00  7.096207644E+01  7.096207644E+01  0.000000000E+00  0.00000E+00  9.000E+00
      21    -1     0     0   511   502  0.000000000E+00  0.000000000E+00 -1.123342058E+03  1.123342058E+03  0.000000000E+00  0.00000E+00  9.000E+00
      25     1     1     2     0     0 -3.638115450E+01 -5.809147735E+01 -2.276837617E+01  1.443662256E+02  1.250000000E+02  0.00000E+00  9.000E+00
      25     1     1     2     0     0  7.634032568E+01  4.498683278E+01 -6.410278507E+02  6.590852492E+02  1.250000000E+02  0.00000E+00  9.000E+00
      21     1     1     2   511   501 -3.995917119E+01  1.310464457E+01 -3.885837552E+02  3.908526601E+02  7.629394531E-06  0.00000E+00  9.000E+00
#rwgt            1           1   4.4451810307420021E-002           8      422328           0
</event>
<event>
      5   9999  3.79277E-02  1.34578E+02 -1.00000E+00  1.18292E-01
      21    -1     0     0   502   512  0.000000000E+00  0.000000000E+00  1.227521295E+03  1.227521295E+03  0.000000000E+00  0.00000E+00  9.000E+00
      21    -1     0     0   501   502  0.000000000E+00  0.000000000E+00 -1.518516346E+02  1.518516346E+02  0.000000000E+00  0.00000E+00  9.000E+00
      25     1     1     2     0     0  8.720568724E+01 -1.705958446E+02 -3.846191743E+01  2.319743373E+02  1.250000000E+02  0.00000E+00  9.000E+00
      25     1     1     2     0     0 -3.003301662E+01  4.876617446E+01  6.357042362E+02  6.504037191E+02  1.250000000E+02  0.00000E+00  9.000E+00
      21     1     1     2   501   512 -5.717267062E+01  1.218296702E+02  4.784273412E+02  4.969948728E+02  5.394796609E-06  0.00000E+00  9.000E+00
#rwgt            1           1   5.0164923473628116E-002           8      422724           0
</event>
<event>
      5   9999  3.79277E-02  4.04384E+01 -1.00000E+00  1.44547E-01
      21    -1     0     0   502   511  0.000000000E+00  0.000000000E+00  2.397259154E+02  2.397259154E+02  0.000000000E+00  0.00000E+00  9.000E+00
      21    -1     0     0   501   502  0.000000000E+00  0.000000000E+00 -3.126269950E+02  3.126269950E+02  0.000000000E+00  0.00000E+00  9.000E+00
      25     1     1     2     0     0 -9.282015444E+01  1.074613244E+02  3.331481785E+01  1.920895478E+02  1.250000000E+02  0.00000E+00  9.000E+00
      25     1     1     2     0     0  6.658424852E+01 -1.382337263E+02 -1.855068224E+02  2.712559795E+02  1.250000000E+02  0.00000E+00  9.000E+00
      21     1     1     2   501   511  2.623590592E+01  3.077240197E+01  7.929092489E+01  8.900738314E+01  1.907348633E-06  0.00000E+00  9.000E+00
#rwgt            1           1   3.2403055526382375E-002           8      422854           0
</event>
<event>
      5   9999  3.79277E-02  4.12072E+01 -1.00000E+00  1.44044E-01
      21    -1     0     0   502   501  0.000000000E+00  0.000000000E+00  4.146360094E+02  4.146360094E+02  0.000000000E+00  0.00000E+00  9.000E+00
      21    -1     0     0   512   502  0.000000000E+00  0.000000000E+00 -5.292798333E+02  5.292798333E+02  0.000000000E+00  0.00000E+00  9.000E+00
      25     1     1     2     0     0 -2.514335836E+02  1.738845998E+01  1.952720265E+00  2.813361311E+02  1.250000000E+02  0.00000E+00  9.000E+00
      25     1     1     2     0     0  2.331393515E+02 -5.431205153E+01  2.045649441E+02  3.387854373E+02  1.250000000E+02  0.00000E+00  9.000E+00
      21     1     1     2   512   501  1.829423215E+01  3.692359155E+01 -3.211614883E+02  3.237942744E+02  0.000000000E+00  0.00000E+00  9.000E+00
#rwgt            1           1   6.0239421069360574E-002           8      422999           0
</event>
<event>
      5   9999  3.79277E-02  1.39191E+02 -1.00000E+00  1.17695E-01
      21    -1     0     0   502   501  0.000000000E+00  0.000000000E+00  8.769659616E+02  8.769659616E+02  0.000000000E+00  0.00000E+00  9.000E+00
       2    -1     0     0   501     0  0.000000000E+00  0.000000000E+00 -1.159326067E+03  1.159326067E+03  0.000000000E+00  0.00000E+00  9.000E+00
      25     1     1     2     0     0 -6.594452504E+02  1.608266665E+02  1.172555987E+02  7.000765175E+02  1.250000000E+02  0.00000E+00  9.000E+00
      25     1     1     2     0     0  7.567201816E+02 -2.603849069E+02  1.013376055E+02  8.162842907E+02  1.250000000E+02  0.00000E+00  9.000E+00
       2     1     1     2   502     0 -9.727493123E+01  9.955824041E+01 -5.009533092E+02  5.199312200E+02  5.394796609E-06  0.00000E+00  9.000E+00
#rwgt            2          13   3.6638821963950509E-004           8      423100           0
</event>
<event>
      5   9999  3.79277E-02  5.59596E+01 -1.00000E+00  1.36342E-01
      21    -1     0     0   502   511  0.000000000E+00  0.000000000E+00  1.440652152E+02  1.440652152E+02  0.000000000E+00  0.00000E+00  9.000E+00
      21    -1     0     0   501   502  0.000000000E+00  0.000000000E+00 -1.208376271E+03  1.208376271E+03  0.000000000E+00  0.00000E+00  9.000E+00
      25     1     1     2     0     0  7.953041430E+01 -1.497277310E+02 -2.224926307E+02  3.063844822E+02  1.250000000E+02  0.00000E+00  9.000E+00
      25     1     1     2     0     0 -1.262594561E+02  1.805152114E+02 -9.175652274E+02  9.518813678E+02  1.250000000E+02  0.00000E+00  9.000E+00
      21     1     1     2   501   511  4.672904181E+01 -3.078748044E+01  7.574680261E+01  9.417563594E+01  0.000000000E+00  0.00000E+00  9.000E+00
#rwgt            1           1   4.2816228097246702E-002           8      423299           0
</event>
<event>
      5   9999 -4.46983E-02  2.35359E+01 -1.00000E+00  1.60739E-01
      21    -1     0     0   512   501  0.000000000E+00  0.000000000E+00  2.287236481E+02  2.287236481E+02  0.000000000E+00  0.00000E+00  9.000E+00
      21    -1     0     0   501   502  0.000000000E+00  0.000000000E+00 -3.435969531E+02  3.435969531E+02  0.000000000E+00  0.00000E+00  9.000E+00
      25     1     1     2     0     0 -4.367008129E+01  2.104033094E+02 -2.420550382E+01  2.497749688E+02  1.250000000E+02  0.00000E+00  9.000E+00
      25     1     1     2     0     0  2.948592986E+01 -2.291849292E+02 -1.166836108E+02  2.874634183E+02  1.250000000E+02  0.00000E+00  9.000E+00
      21     1     1     2   512   502  1.418415143E+01  1.878161981E+01  2.601580963E+01  3.508221408E+01  7.539457465E-07  0.00000E+00  9.000E+00
#rwgt            1           1 -0.41611695218503819                8      423435           0
</event>
<event>
      5   9999  3.79277E-02  3.91193E+01 -1.00000E+00  1.45442E-01
      21    -1     0     0   502   501  0.000000000E+00  0.000000000E+00  5.705287806E+01  5.705287806E+01  0.000000000E+00  0.00000E+00  9.000E+00
      21    -1     0     0   501   511  0.000000000E+00  0.000000000E+00 -1.072675299E+03  1.072675299E+03  0.000000000E+00  0.00000E+00  9.000E+00
      25     1     1     2     0     0  5.292779162E+01  1.218533518E+02 -1.405991216E+02  2.303100160E+02  1.250000000E+02  0.00000E+00  9.000E+00
      25     1     1     2     0     0 -1.506062568E+01 -1.120352364E+02 -6.872307387E+02  7.075943788E+02  1.250000000E+02  0.00000E+00  9.000E+00
      21     1     1     2   502   511 -3.786716594E+01 -9.818115412E+00 -1.877925609E+02  1.918237826E+02  0.000000000E+00  0.00000E+00  9.000E+00
#rwgt            1           1   3.6703509211151869E-002           8      423663           0
</event>
<event>
      5   9999  3.79277E-02  1.29624E+02 -1.00000E+00  1.18963E-01
      21    -1     0     0   502   512  0.000000000E+00  0.000000000E+00  2.805196944E+02  2.805196944E+02  0.000000000E+00  0.00000E+00  9.000E+00
      21    -1     0     0   501   502  0.000000000E+00  0.000000000E+00 -2.190286645E+03  2.190286645E+03  0.000000000E+00  0.00000E+00  9.000E+00
      25     1     1     2     0     0  1.612084530E+02  1.148217197E+02 -1.068032337E+03  1.093384775E+03  1.250000000E+02  0.00000E+00  9.000E+00
      25     1     1     2     0     0 -1.813333882E+02  1.323033086E+01 -1.082082260E+03  1.104347707E+03  1.250000000E+02  0.00000E+00  9.000E+00
      21     1     1     2   501   512  2.012493526E+01 -1.280520506E+02  2.403476467E+02  2.730738580E+02  4.672030912E-06  0.00000E+00  9.000E+00
#rwgt            1           1  0.10731581707160814                8      423748           0
</event>
<event>
      5   9999  3.79277E-02  8.49698E+00 -1.00000E+00  2.04306E-01
      21    -1     0     0   502   501  0.000000000E+00  0.000000000E+00  2.446766208E+02  2.446766208E+02  0.000000000E+00  0.00000E+00  9.000E+00
      21    -1     0     0   501   511  0.000000000E+00  0.000000000E+00 -2.014878221E+02  2.014878221E+02  0.000000000E+00  0.00000E+00  9.000E+00
      25     1     1     2     0     0 -1.629120758E+02 -5.068924028E+01 -3.956744502E+01  2.151751060E+02  1.250000000E+02  0.00000E+00  9.000E+00
      25     1     1     2     0     0  1.546684860E+02  5.274882659E+01  8.431891611E+01  2.223498570E+02  1.250000000E+02  0.00000E+00  9.000E+00
      21     1     1     2   502   511  8.243589789E+00 -2.059586309E+00 -1.562672355E+00  8.639479919E+00  1.095007245E-07  0.00000E+00  9.000E+00
#rwgt            1           1   3.4353362012092686E-002           8      423853           0
</event>
<event>
      5   9999  3.79277E-02  7.81478E+01 -1.00000E+00  1.28844E-01
      21    -1     0     0   502   512  0.000000000E+00  0.000000000E+00  2.294086431E+02  2.294086431E+02  0.000000000E+00  0.00000E+00  9.000E+00
      21    -1     0     0   501   502  0.000000000E+00  0.000000000E+00 -4.123765579E+02  4.123765579E+02  0.000000000E+00  0.00000E+00  9.000E+00
      25     1     1     2     0     0 -1.506979575E+02 -1.088262492E+02  8.231018097E+00  2.241556972E+02  1.250000000E+02  0.00000E+00  9.000E+00
      25     1     1     2     0     0  8.140223102E+01  7.269894498E+01 -2.633477149E+02  3.112691420E+02  1.250000000E+02  0.00000E+00  9.000E+00
      21     1     1     2   501   512  6.929572650E+01  3.612730421E+01  7.214878203E+01  1.063603618E+02  1.651812370E-06  0.00000E+00  9.000E+00
#rwgt            1           1   5.3924209387154677E-002           8      424165           0
</event>
<event>
      5   9999  3.79277E-02  4.30793E+01 -1.00000E+00  1.42871E-01
      21    -1     0     0   502   501  0.000000000E+00  0.000000000E+00  2.185918209E+02  2.185918209E+02  0.000000000E+00  0.00000E+00  9.000E+00
      21    -1     0     0   511   502  0.000000000E+00  0.000000000E+00 -3.668320668E+02  3.668320668E+02  0.000000000E+00  0.00000E+00  9.000E+00
      25     1     1     2     0     0 -1.411125836E+02 -8.172280449E+01  5.264477712E+01  2.121033960E+02  1.250000000E+02  0.00000E+00  9.000E+00
      25     1     1     2     0     0  1.663427662E+02  4.680484087E+01 -5.365754583E+01  2.199198518E+02  1.250000000E+02  0.00000E+00  9.000E+00
      21     1     1     2   511   501 -2.523018253E+01  3.491796362E+01 -1.472274772E+02  1.534006399E+02  1.907348633E-06  0.00000E+00  9.000E+00
#rwgt            2          11   9.6441722091947712E-004           8      424258           0
</event>
<event>
      5   9999  3.79277E-02  1.98319E+01 -1.00000E+00  1.66672E-01
      21    -1     0     0   502   512  0.000000000E+00  0.000000000E+00  4.345862073E+01  4.345862073E+01  0.000000000E+00  0.00000E+00  9.000E+00
      21    -1     0     0   501   502  0.000000000E+00  0.000000000E+00 -1.359666255E+03  1.359666255E+03  0.000000000E+00  0.00000E+00  9.000E+00
      25     1     1     2     0     0  7.097255824E+01 -6.650124765E+01 -1.111590806E+03  1.122817278E+03  1.250000000E+02  0.00000E+00  9.000E+00
      25     1     1     2     0     0 -6.945698360E+01  4.672731575E+01 -2.112957633E+02  2.593812140E+02  1.250000000E+02  0.00000E+00  9.000E+00
      21     1     1     2   501   512 -1.515574633E+00  1.977393189E+01  6.678935186E+00  2.092638345E+01  9.272306672E-07  0.00000E+00  9.000E+00
#rwgt            1           1   3.4097745231630679E-002           8      424278           0
</event>
<event>
      5   9999  3.79277E-02  6.92359E+01 -1.00000E+00  1.31463E-01
      21    -1     0     0   502   501  0.000000000E+00  0.000000000E+00  1.231894290E+02  1.231894290E+02  0.000000000E+00  0.00000E+00  9.000E+00
       1    -1     0     0   501     0  0.000000000E+00  0.000000000E+00 -1.029907561E+03  1.029907561E+03  0.000000000E+00  0.00000E+00  9.000E+00
      25     1     1     2     0     0  4.997880150E+01 -7.361988040E+01  1.276983687E+01  1.539669969E+02  1.250000000E+02  0.00000E+00  9.000E+00
      25     1     1     2     0     0  1.900888355E+01  6.776245235E+01 -9.571204472E+01  1.724496538E+02  1.250000000E+02  0.00000E+00  9.000E+00
       1     1     1     2   502     0 -6.898768505E+01  5.857428042E+00 -8.237759244E+02  8.266803395E+02  0.000000000E+00  0.00000E+00  9.000E+00
#rwgt            1           1   2.9615560992574286E-002           8      424500           0
</event>
<event>
      5   9999  3.79277E-02  1.61003E+02 -1.00000E+00  1.15188E-01
      21    -1     0     0   502   501  0.000000000E+00  0.000000000E+00  1.680386361E+03  1.680386361E+03  0.000000000E+00  0.00000E+00  9.000E+00
       2    -1     0     0   501     0  0.000000000E+00  0.000000000E+00 -5.818587430E+02  5.818587430E+02  0.000000000E+00  0.00000E+00  9.000E+00
      25     1     1     2     0     0 -2.106668066E+01 -2.266609110E+02  1.150651236E+03  1.179594100E+03  1.250000000E+02  0.00000E+00  9.000E+00
      25     1     1     2     0     0  1.163446807E+02  9.687603344E+01  4.843020577E+02  5.225844751E+02  1.250000000E+02  0.00000E+00  9.000E+00
       2     1     1     2   502     0 -9.527800002E+01  1.297848776E+02 -5.364256755E+02  5.600665292E+02  1.078959322E-05  0.00000E+00  9.000E+00
#rwgt            1           1   4.2945340299754380E-002           8      424613           0
</event>
<event>
      5   9999  3.79277E-02  1.53152E+01 -1.00000E+00  1.76537E-01
      21    -1     0     0   502   501  0.000000000E+00  0.000000000E+00  3.277286926E+02  3.277286926E+02  0.000000000E+00  0.00000E+00  9.000E+00
      21    -1     0     0   501   511  0.000000000E+00  0.000000000E+00 -1.313035968E+02  1.313035968E+02  0.000000000E+00  0.00000E+00  9.000E+00
      25     1     1     2     0     0 -4.637983293E+01  9.960072976E+01  9.449555213E+01  1.913786917E+02  1.250000000E+02  0.00000E+00  9.000E+00
      25     1     1     2     0     0  4.780011068E+01 -8.435156413E+01  1.495121619E+02  2.176670014E+02  1.250000000E+02  0.00000E+00  9.000E+00
      21     1     1     2   502   511 -1.420277752E+00 -1.524916563E+01 -4.758261824E+01  4.998659620E+01  0.000000000E+00  0.00000E+00  9.000E+00
#rwgt            1           1   3.1924333924304403E-002           8      424658           0
</event>
<event>
      5   9999  3.79277E-02  9.89400E+01 -1.00000E+00  1.24036E-01
       2    -1     0     0   502     0  0.000000000E+00  0.000000000E+00  9.812820117E+02  9.812820117E+02  0.000000000E+00  0.00000E+00  9.000E+00
      21    -1     0     0   501   502  0.000000000E+00  0.000000000E+00 -2.058291592E+02  2.058291592E+02  0.000000000E+00  0.00000E+00  9.000E+00
      25     1     1     2     0     0  7.986596953E+01 -9.541523860E+01 -1.061568744E+02  2.058565589E+02  1.250000000E+02  0.00000E+00  9.000E+00
      25     1     1     2     0     0  8.188029218E+00  1.405331123E+02  1.439462640E+02  2.369854983E+02  1.250000000E+02  0.00000E+00  9.000E+00
       2     1     1     2   501     0 -8.805399875E+01 -4.511787372E+01  7.376634629E+02  7.442691137E+02  1.078959322E-05  0.00000E+00  9.000E+00
#rwgt            1           1   2.5776070188897392E-002           8      424917           0
</event>
<event>
      5   9999  3.79277E-02  2.32319E+01 -1.00000E+00  1.61174E-01
      21    -1     0     0   502   501  0.000000000E+00  0.000000000E+00  1.687435570E+03  1.687435570E+03  0.000000000E+00  0.00000E+00  9.000E+00
      21    -1     0     0   511   502  0.000000000E+00  0.000000000E+00 -3.019234481E+01  3.019234481E+01  0.000000000E+00  0.00000E+00  9.000E+00
      25     1     1     2     0     0  4.216083621E+00 -8.067685991E+01  1.194784936E+03  1.204019341E+03  1.250000000E+02  0.00000E+00  9.000E+00
      25     1     1     2     0     0 -1.458922190E+00  1.037445458E+02  4.626858044E+02  4.903755834E+02  1.250000000E+02  0.00000E+00  9.000E+00
      21     1     1     2   511   501 -2.757161430E+00 -2.306768589E+01 -2.275150067E-01  2.323299022E+01  6.744833298E-07  0.00000E+00  9.000E+00
#rwgt            1           1   4.0643919591741899E-002           8      424981           0
</event>
<event>
      5   9999  3.79277E-02  3.41223E+01 -1.00000E+00  1.49255E-01
      21    -1     0     0   502   501  0.000000000E+00  0.000000000E+00  2.491974421E+03  2.491974421E+03  0.000000000E+00  0.00000E+00  9.000E+00
      21    -1     0     0   501   512  0.000000000E+00  0.000000000E+00 -2.606833348E+02  2.606833348E+02  0.000000000E+00  0.00000E+00  9.000E+00
      25     1     1     2     0     0  3.639068278E+01 -2.110866449E+01  3.879704163E+02  4.097754280E+02  1.250000000E+02  0.00000E+00  9.000E+00
      25     1     1     2     0     0 -1.050319395E+01 -1.121221360E+00  2.090046676E+03  2.093807938E+03  1.250000000E+02  0.00000E+00  9.000E+00
      21     1     1     2   502   512 -2.588748883E+01  2.222988585E+01 -2.467260056E+02  2.490743900E+02  9.344061824E-06  0.00000E+00  9.000E+00
#rwgt            1           1   3.8390594062065408E-002           8      425134           0
</event>
<event>
      5   9999  3.79277E-02  1.40355E+02 -1.00000E+00  1.17549E-01
      21    -1     0     0   502   511  0.000000000E+00  0.000000000E+00  1.359898047E+02  1.359898047E+02  0.000000000E+00  0.00000E+00  9.000E+00
      21    -1     0     0   501   502  0.000000000E+00  0.000000000E+00 -8.765033352E+02  8.765033352E+02  0.000000000E+00  0.00000E+00  9.000E+00
      25     1     1     2     0     0 -1.543436310E+02  2.427283690E+01 -4.432246891E+02  4.862964652E+02  1.250000000E+02  0.00000E+00  9.000E+00
      25     1     1     2     0     0  8.784314351E+01 -1.478734148E+02 -3.198171632E+02  3.840455475E+02  1.250000000E+02  0.00000E+00  9.000E+00
      21     1     1     2   501   511  6.650048753E+01  1.236005779E+02  2.252832176E+01  1.421511273E+02  1.994752947E-06  0.00000E+00  9.000E+00
#rwgt            2          11   3.2550317535212639E-003           8      425321           0
</event>
<event>
      5   9999  3.79277E-02  2.16810E+01 -1.00000E+00  1.63528E-01
      21    -1     0     0   502   501  0.000000000E+00  0.000000000E+00  2.211924980E+01  2.211924980E+01  0.000000000E+00  0.00000E+00  9.000E+00
      21    -1     0     0   501   512  0.000000000E+00  0.000000000E+00 -2.483185180E+03  2.483185180E+03  0.000000000E+00  0.00000E+00  9.000E+00
      25     1     1     2     0     0  4.766092075E+01 -8.278135344E+01 -3.157327037E+02  3.527555188E+02  1.250000000E+02  0.00000E+00  9.000E+00
      25     1     1     2     0     0 -4.071174060E+01  6.224417338E+01 -1.546988658E+03  1.553811665E+03  1.250000000E+02  0.00000E+00  9.000E+00
      21     1     1     2   502   512 -6.949180148E+00  2.053718006E+01 -5.983445687E+02  5.987372460E+02  7.629394531E-06  0.00000E+00  9.000E+00
#rwgt            1           1  0.14660556052852408                8      425521           0
</event>
<event>
      5   9999  3.79277E-02  1.89951E+02 -1.00000E+00  1.12469E-01
       2    -1     0     0   502     0  0.000000000E+00  0.000000000E+00  2.248781497E+03  2.248781497E+03  0.000000000E+00  0.00000E+00  9.000E+00
      21    -1     0     0   501   502  0.000000000E+00  0.000000000E+00 -3.279736863E+02  3.279736863E+02  0.000000000E+00  0.00000E+00  9.000E+00
      25     1     1     2     0     0  4.933592207E+01  1.756835230E+02 -3.987275311E+00  2.212230364E+02  1.250000000E+02  0.00000E+00  9.000E+00
      25     1     1     2     0     0 -8.101889678E+01  1.160644407E+01 -1.846637186E+02  2.375383341E+02  1.250000000E+02  0.00000E+00  9.000E+00
       2     1     1     2   501     0  3.168297471E+01 -1.872899671E+02  2.109458805E+03  2.117993813E+03  3.051757812E-05  0.00000E+00  9.000E+00
#rwgt            1           1   4.2905121177700047E-002           8      425668           0
</event>
<event>
      5   9999  3.79277E-02  1.31193E+02 -1.00000E+00  1.18747E-01
      21    -1     0     0   502   501  0.000000000E+00  0.000000000E+00  8.183923171E+02  8.183923171E+02  0.000000000E+00  0.00000E+00  9.000E+00
      21    -1     0     0   501   511  0.000000000E+00  0.000000000E+00 -1.788376977E+02  1.788376977E+02  0.000000000E+00  0.00000E+00  9.000E+00
      25     1     1     2     0     0  1.131041486E+02  1.589962927E+02  1.508895783E+02  2.765231172E+02  1.250000000E+02  0.00000E+00  9.000E+00
      25     1     1     2     0     0 -8.045854168E+01 -3.193025944E+01  5.537586239E+02  5.742531950E+02  1.250000000E+02  0.00000E+00  9.000E+00
      21     1     1     2   502   511 -3.264560688E+01 -1.270660333E+02 -6.509358276E+01  1.464537025E+02  2.336015456E-06  0.00000E+00  9.000E+00
#rwgt            1           1   4.4178107262989270E-002           8      425837           0
</event>
<event>
      5   9999  3.79277E-02  4.26795E+01 -1.00000E+00  1.43115E-01
      21    -1     0     0   502   501  0.000000000E+00  0.000000000E+00  4.511340479E+01  4.511340479E+01  0.000000000E+00  0.00000E+00  9.000E+00
      21    -1     0     0   501   512  0.000000000E+00  0.000000000E+00 -2.386061507E+03  2.386061507E+03  0.000000000E+00  0.00000E+00  9.000E+00
      25     1     1     2     0     0 -1.297691761E+02  1.968367635E+02 -1.560380644E+03  1.583034271E+03  1.250000000E+02  0.00000E+00  9.000E+00
      25     1     1     2     0     0  9.767970542E+01 -2.249757937E+02 -5.662949863E+02  6.296589903E+02  1.250000000E+02  0.00000E+00  9.000E+00
      21     1     1     2   502   512  3.208947068E+01  2.813903016E+01 -2.142724720E+02  2.184816501E+02  0.000000000E+00  0.00000E+00  9.000E+00
#rwgt            1           1  0.10642887821908835                8      425900           0
</event>
<event>
      5   9999  3.79277E-02  2.67136E+01 -1.00000E+00  1.56624E-01
      21    -1     0     0   502   501  0.000000000E+00  0.000000000E+00  1.223711439E+02  1.223711439E+02  0.000000000E+00  0.00000E+00  9.000E+00
      21    -1     0     0   501   511  0.000000000E+00  0.000000000E+00 -5.084307663E+02  5.084307663E+02  0.000000000E+00  0.00000E+00  9.000E+00
      25     1     1     2     0     0  2.587380184E+01 -1.936528651E+02 -1.004317522E+02  2.527497233E+02  1.250000000E+02  0.00000E+00  9.000E+00
      25     1     1     2     0     0 -4.278267705E+01  1.729717575E+02 -2.318679190E+02  3.180209399E+02  1.250000000E+02  0.00000E+00  9.000E+00
      21     1     1     2   502   511  1.690887521E+01  2.068110763E+01 -5.375995123E+01  6.003124711E+01  9.536743164E-07  0.00000E+00  9.000E+00
#rwgt            1           1   3.6936997029026059E-002           8      426083           0
</event>
<event>
      5   9999  3.79277E-02  2.37689E+01 -1.00000E+00  1.60411E-01
      21    -1     0     0   512   501  0.000000000E+00  0.000000000E+00  1.265375970E+03  1.265375970E+03  0.000000000E+00  0.00000E+00  9.000E+00
      21    -1     0     0   501   502  0.000000000E+00  0.000000000E+00 -3.659673937E+01  3.659673937E+01  0.000000000E+00  0.00000E+00  9.000E+00
      25     1     1     2     0     0 -2.144062280E+00 -2.143554407E+01  9.643912533E+02  9.726970592E+02  1.250000000E+02  0.00000E+00  9.000E+00
      25     1     1     2     0     0 -1.970525498E+01  1.207773526E+01  9.620010351E+01  1.594165257E+02  1.250000000E+02  0.00000E+00  9.000E+00
      21     1     1     2   512   502  2.184931726E+01  9.357808802E+00  1.681878737E+02  1.698591243E+02  2.697398305E-06  0.00000E+00  9.000E+00
#rwgt            1           1   4.3121063763192392E-002           8      426320           0
</event>
<event>
      5   9999  3.79277E-02  6.19680E+01 -1.00000E+00  1.33959E-01
      21    -1     0     0   502   511  0.000000000E+00  0.000000000E+00  1.655148202E+02  1.655148202E+02  0.000000000E+00  0.00000E+00  9.000E+00
      21    -1     0     0   501   502  0.000000000E+00  0.000000000E+00 -1.456722290E+03  1.456722290E+03  0.000000000E+00  0.00000E+00  9.000E+00
      25     1     1     2     0     0 -7.697858966E+01  7.960708384E+00 -1.172848765E+03  1.182027200E+03  1.250000000E+02  0.00000E+00  9.000E+00
      25     1     1     2     0     0  1.387173193E+02 -2.635049022E+00 -2.397605480E+02  3.039071545E+02  1.250000000E+02  0.00000E+00  9.000E+00
      21     1     1     2   501   511 -6.173872962E+01 -5.325659362E+00  1.214018437E+02  1.363027551E+02  4.672030912E-06  0.00000E+00  9.000E+00
#rwgt            1           1   3.2013661931347616E-002           8      426680           0
</event>
<event>
      5   9999  3.79277E-02  5.52281E+01 -1.00000E+00  1.36655E-01
      21    -1     0     0   512   501  0.000000000E+00  0.000000000E+00  9.056292973E+01  9.056292973E+01  0.000000000E+00  0.00000E+00  9.000E+00
      21    -1     0     0   501   502  0.000000000E+00  0.000000000E+00 -1.337545328E+03  1.337545328E+03  0.000000000E+00  0.00000E+00  9.000E+00
      25     1     1     2     0     0 -6.085772599E+01  1.635569278E+02 -2.666746132E+02  3.423373786E+02  1.250000000E+02  0.00000E+00  9.000E+00
      25     1     1     2     0     0  1.143561745E+02 -1.498434407E+02 -1.001420933E+03  1.026644669E+03  1.250000000E+02  0.00000E+00  9.000E+00
      21     1     1     2   512   502 -5.349844855E+01 -1.371348711E+01  2.111314784E+01  5.912621025E+01  2.172096629E-06  0.00000E+00  9.000E+00
#rwgt            2          11   1.5025714003672674E-003           8      426764           0
</event>
<event>
      5   9999  3.79277E-02  3.82347E+01 -1.00000E+00  1.46066E-01
      21    -1     0     0   502   501  0.000000000E+00  0.000000000E+00  6.671407040E+01  6.671407040E+01  0.000000000E+00  0.00000E+00  9.000E+00
      21    -1     0     0   501   511  0.000000000E+00  0.000000000E+00 -9.648152530E+02  9.648152530E+02  0.000000000E+00  0.00000E+00  9.000E+00
      25     1     1     2     0     0 -1.113362738E+02  8.341542240E+01 -6.127181307E+02  6.406265732E+02  1.250000000E+02  0.00000E+00  9.000E+00
      25     1     1     2     0     0  1.472613483E+02 -9.650277533E+01 -1.880630144E+02  2.863413832E+02  1.250000000E+02  0.00000E+00  9.000E+00
      21     1     1     2   502   511 -3.592507444E+01  1.308735293E+01 -9.732003754E+01  1.045613671E+02  0.000000000E+00  0.00000E+00  9.000E+00
#rwgt            1           1   3.6760772420321719E-002           8      426784           0
</event>
<event>
      5   9999  3.79277E-02  3.73923E+01 -1.00000E+00  1.46680E-01
      21    -1     0     0   502   501  0.000000000E+00  0.000000000E+00  1.879472611E+02  1.879472611E+02  0.000000000E+00  0.00000E+00  9.000E+00
      21    -1     0     0   501   512  0.000000000E+00  0.000000000E+00 -2.422564219E+02  2.422564219E+02  0.000000000E+00  0.00000E+00  9.000E+00
      25     1     1     2     0     0  1.507765963E+02  4.420465241E+01  2.807868391E+01  2.027339285E+02  1.250000000E+02  0.00000E+00  9.000E+00
      25     1     1     2     0     0 -1.135878157E+02 -4.030889095E+01 -7.595233576E+01  1.895277180E+02  1.250000000E+02  0.00000E+00  9.000E+00
      21     1     1     2   502   512 -3.718878057E+01 -3.895761459E+00 -6.435508936E+00  3.794203649E+01  2.064765462E-07  0.00000E+00  9.000E+00
#rwgt            1           1   3.8246359257835670E-002           8      426955           0
</event>
<event>
      5   9999  3.79277E-02  5.28448E+01 -1.00000E+00  1.37718E-01
      21    -1     0     0   502   501  0.000000000E+00  0.000000000E+00  1.796251759E+02  1.796251759E+02  0.000000000E+00  0.00000E+00  9.000E+00
      21    -1     0     0   511   502  0.000000000E+00  0.000000000E+00 -9.982139348E+02  9.982139348E+02  0.000000000E+00  0.00000E+00  9.000E+00
      25     1     1     2     0     0  2.433588252E+02  2.197318638E+02 -1.801394644E+02  3.944373668E+02  1.250000000E+02  0.00000E+00  9.000E+00
      25     1     1     2     0     0 -2.831992045E+02 -2.544495843E+02 -5.744900747E+02  7.004357403E+02  1.250000000E+02  0.00000E+00  9.000E+00
      21     1     1     2   511   501  3.984037934E+01  3.471772056E+01 -6.395921977E+01  8.296600352E+01  9.536743164E-07  0.00000E+00  9.000E+00
#rwgt            1           1   3.9173581476840635E-002           8      427068           0
</event>
<event>
      5   9999  3.79277E-02  2.91513E+02 -1.00000E+00  1.05999E-01
      21    -1     0     0   502   512  0.000000000E+00  0.000000000E+00  3.738473393E+02  3.738473393E+02  0.000000000E+00  0.00000E+00  9.000E+00
      21    -1     0     0   501   502  0.000000000E+00  0.000000000E+00 -8.363129279E+02  8.363129279E+02  0.000000000E+00  0.00000E+00  9.000E+00
      25     1     1     2     0     0 -9.574970724E+01  2.358077291E+02 -1.739903355E+02  3.326724040E+02  1.250000000E+02  0.00000E+00  9.000E+00
      25     1     1     2     0     0  3.779329296E+02 -1.626488525E+02 -3.780028275E+02  5.725374102E+02  1.250000000E+02  0.00000E+00  9.000E+00
      21     1     1     2   501   512 -2.821832223E+02 -7.315887659E+01  8.952757440E+01  3.049504530E+02  3.162979880E-06  0.00000E+00  9.000E+00
#rwgt            2          11   2.0571896731513221E-003           8      427577           0
</event>
<event>
      5   9999  3.79277E-02  2.76143E+01 -1.00000E+00  1.55582E-01
      21    -1     0     0   502   511  0.000000000E+00  0.000000000E+00  1.309163999E+02  1.309163999E+02  0.000000000E+00  0.00000E+00  9.000E+00
      21    -1     0     0   501   502  0.000000000E+00  0.000000000E+00 -5.536264359E+02  5.536264359E+02  0.000000000E+00  0.00000E+00  9.000E+00
      25     1     1     2     0     0 -2.204593637E+02  7.577863576E+01 -1.981993804E+02  3.305340029E+02  1.250000000E+02  0.00000E+00  9.000E+00
      25     1     1     2     0     0  1.934810039E+02 -8.167057702E+01 -2.126320239E+02  3.239480817E+02  1.250000000E+02  0.00000E+00  9.000E+00
      21     1     1     2   501   511  2.697835982E+01  5.891941260E+00 -1.187863171E+01  3.006075118E+01  2.920019320E-07  0.00000E+00  9.000E+00
#rwgt            1           1  0.13573714238627363                8      427597           0
</event>
<event>
      5   9999  3.79277E-02  4.05246E+01 -1.00000E+00  1.44490E-01
      21    -1     0     0   512   501  0.000000000E+00  0.000000000E+00  1.257016359E+03  1.257016359E+03  0.000000000E+00  0.00000E+00  9.000E+00
      21    -1     0     0   501   502  0.000000000E+00  0.000000000E+00 -5.241426565E+01  5.241426565E+01  0.000000000E+00  0.00000E+00  9.000E+00
      25     1     1     2     0     0  1.372447568E+02 -1.242879202E+01  1.811265041E+02  2.596582536E+02  1.250000000E+02  0.00000E+00  9.000E+00
      25     1     1     2     0     0 -9.816395114E+01  1.708032099E+00  4.983161149E+02  5.230516505E+02  1.250000000E+02  0.00000E+00  9.000E+00
      21     1     1     2   512   502 -3.908080570E+01  1.072075992E+01  5.251594740E+02  5.267207203E+02  0.000000000E+00  0.00000E+00  9.000E+00
#rwgt            1           1   3.9903301955414361E-002           8      427723           0
</event>
<event>
      5   9999  3.79277E-02  8.88102E+01 -1.00000E+00  1.26191E-01
      21    -1     0     0   502   501  0.000000000E+00  0.000000000E+00  2.663381241E+02  2.663381241E+02  0.000000000E+00  0.00000E+00  9.000E+00
       2    -1     0     0   501     0  0.000000000E+00  0.000000000E+00 -2.469596649E+02  2.469596649E+02  0.000000000E+00  0.00000E+00  9.000E+00
      25     1     1     2     0     0  8.251697874E+01 -1.281820985E+02 -5.173264482E+01  2.038160168E+02  1.250000000E+02  0.00000E+00  9.000E+00
      25     1     1     2     0     0 -4.411986592E+00  1.704533685E+02  3.864802157E+01  2.149243728E+02  1.250000000E+02  0.00000E+00  9.000E+00
       2     1     1     2   502     0 -7.810499214E+01 -4.227126998E+01  3.246308251E+01  9.455739945E+01  1.348699152E-06  0.00000E+00  9.000E+00
#rwgt            1           1   4.6328131906295741E-002           8      427852           0
</event>
<event>
      5   9999  3.79277E-02  1.90819E+02 -1.00000E+00  1.12396E-01
      21    -1     0     0   502   511  0.000000000E+00  0.000000000E+00  5.152014755E+02  5.152014755E+02  0.000000000E+00  0.00000E+00  9.000E+00
      21    -1     0     0   501   502  0.000000000E+00  0.000000000E+00 -6.685395916E+02  6.685395916E+02  0.000000000E+00  0.00000E+00  9.000E+00
      25     1     1     2     0     0  3.536394724E+02  2.268010854E+02  1.246584248E+02  4.557020207E+02  1.250000000E+02  0.00000E+00  9.000E+00
      25     1     1     2     0     0 -3.501585314E+02 -3.601377719E+01 -3.614331206E+02  5.197758074E+02  1.250000000E+02  0.00000E+00  9.000E+00
      21     1     1     2   501   511 -3.480941023E+00 -1.907873082E+02  8.343657968E+01  2.082632391E+02  3.932099939E-06  0.00000E+00  9.000E+00
#rwgt            1           1  0.10344349130391016                8      427947           0
</event>
<event>
      5   9999  3.79277E-02  6.22515E+01 -1.00000E+00  1.33854E-01
      21    -1     0     0   502   501  0.000000000E+00  0.000000000E+00  3.464635837E+02  3.464635837E+02  0.000000000E+00  0.00000E+00  9.000E+00
      21    -1     0     0   512   502  0.000000000E+00  0.000000000E+00 -4.285169655E+02  4.285169655E+02  0.000000000E+00  0.00000E+00  9.000E+00
      25     1     1     2     0     0 -1.011264502E+01 -1.098250847E+02  1.996982813E+02  2.601311561E+02  1.250000000E+02  0.00000E+00  9.000E+00
      25     1     1     2     0     0 -3.087533625E+01  6.297173767E+01  6.867673305E+01  1.589346400E+02  1.250000000E+02  0.00000E+00  9.000E+00
      21     1     1     2   512   501  4.098798127E+01  4.685334704E+01 -3.504283961E+02  3.559147532E+02  0.000000000E+00  0.00000E+00  9.000E+00
#rwgt            1           1   4.7852489479255605E-002           8      428022           0
</event>
<event>
      5   9999  3.79277E-02  3.02187E+01 -1.00000E+00  1.52821E-01
      21    -1     0     0   502   511  0.000000000E+00  0.000000000E+00  5.653927537E+02  5.653927537E+02  0.000000000E+00  0.00000E+00  9.000E+00
      21    -1     0     0   501   502  0.000000000E+00  0.000000000E+00 -9.935248839E+01  9.935248839E+01  0.000000000E+00  0.00000E+00  9.000E+00
      25     1     1     2     0     0 -1.351225160E+02 -1.651238361E+01  7.352596258E+01  1.989015342E+02  1.250000000E+02  0.00000E+00  9.000E+00
      25     1     1     2     0     0  1.516803434E+02  4.179100540E+01  2.529803085E+02  3.230749932E+02  1.250000000E+02  0.00000E+00  9.000E+00
      21     1     1     2   501   511 -1.655782741E+01 -2.527862179E+01  1.395339942E+02  1.427687147E+02  1.907348633E-06  0.00000E+00  9.000E+00
#rwgt            1           1   3.5013360854279037E-002           8      428098           0
</event>
<event>
      5   9999  3.79277E-02  1.16565E+02 -1.00000E+00  1.20906E-01
      21    -1     0     0   502   501  0.000000000E+00  0.000000000E+00  1.911978307E+02  1.911978307E+02  0.000000000E+00  0.00000E+00  9.000E+00
       2    -1     0     0   501     0  0.000000000E+00  0.000000000E+00 -1.352802182E+03  1.352802182E+03  0.000000000E+00  0.00000E+00  9.000E+00
      25     1     1     2     0     0 -3.301878244E+02  7.830542318E+00 -8.724139958E+01  3.637600563E+02  1.250000000E+02  0.00000E+00  9.000E+00
      25     1     1     2     0     0  2.264176681E+02  4.526489968E+01 -3.065238198E+02  4.036034238E+02  1.250000000E+02  0.00000E+00  9.000E+00
       2     1     1     2   502     0  1.037701563E+02 -5.309544200E+01 -7.678391322E+02  7.766365329E+02  1.525878906E-05  0.00000E+00  9.000E+00
#rwgt            1           1   3.4494750454180975E-002           8      428289           0
</event>
<event>
      5   9999  3.79277E-02  2.16482E+01 -1.00000E+00  1.63581E-01
      21    -1     0     0   502   501  0.000000000E+00  0.000000000E+00  3.430559362E+02  3.430559362E+02  0.000000000E+00  0.00000E+00  9.000E+00
      21    -1     0     0   511   502  0.000000000E+00  0.000000000E+00 -1.411174231E+02  1.411174231E+02  0.000000000E+00  0.00000E+00  9.000E+00
      25     1     1     2     0     0 -6.553156301E+01  6.707518797E+01 -4.468281923E+01  1.625269852E+02  1.250000000E+02  0.00000E+00  9.000E+00
      25     1     1     2     0     0  8.540882498E+01 -7.565065069E+01  2.476710748E+02  2.999727481E+02  1.250000000E+02  0.00000E+00  9.000E+00
      21     1     1     2   511   501 -1.987726197E+01  8.575462726E+00 -1.049742465E+00  2.167362599E+01  3.868566449E-07  0.00000E+00  9.000E+00
#rwgt            1           1   3.4965630130077266E-002           8      428357           0
</event>
<event>
      5   9999  3.79277E-02  1.25383E+02 -1.00000E+00  1.19565E-01
      21    -1     0     0   502   501  0.000000000E+00  0.000000000E+00  5.227425619E+02  5.227425619E+02  0.000000000E+00  0.00000E+00  9.000E+00
      21    -1     0     0   512   502  0.000000000E+00  0.000000000E+00 -2.246922811E+03  2.246922811E+03  0.000000000E+00  0.00000E+00  9.000E+00
      25     1     1     2     0     0  7.731125498E+01  2.776879984E+01  1.859150355E+02  2.386158771E+02  1.250000000E+02  0.00000E+00  9.000E+00
      25     1     1     2     0     0 -7.373265941E+01 -1.531012135E+02  2.726359749E+02  3.447199754E+02  1.250000000E+02  0.00000E+00  9.000E+00
      21     1     1     2   512   501 -3.578595575E+00  1.253324137E+02 -2.182731260E+03  2.186329521E+03  3.051757812E-05  0.00000E+00  9.000E+00
#rwgt            1           1   4.2691254639440179E-002           8      428608           0
</event>
<event>
      5   9999  3.79277E-02  9.56374E+01 -1.00000E+00  1.24706E-01
      21    -1     0     0   502   501  0.000000000E+00  0.000000000E+00  3.549051736E+01  3.549051736E+01  0.000000000E+00  0.00000E+00  9.000E+00
       2    -1     0     0   501     0  0.000000000E+00  0.000000000E+00 -3.550074180E+03  3.550074180E+03  0.000000000E+00  0.00000E+00  9.000E+00
      25     1     1     2     0     0  1.692361452E+02 -1.053871591E+02 -8.870134750E+02  9.176956091E+02  1.250000000E+02  0.00000E+00  9.000E+00
      25     1     1     2     0     0 -2.600066329E+02  7.526698063E+01 -1.177917519E+03  1.215065121E+03  1.250000000E+02  0.00000E+00  9.000E+00
       2     1     1     2   502     0  9.077048763E+01  3.012017845E+01 -1.449652669E+03  1.452803967E+03  3.051757812E-05  0.00000E+00  9.000E+00
#rwgt            2          13   1.0476546631364840E-003           8      428672           0
</event>
<event>
      5   9999  3.79277E-02  4.24746E+01 -1.00000E+00  1.43242E-01
      21    -1     0     0   502   501  0.000000000E+00  0.000000000E+00  7.297256712E+02  7.297256712E+02  0.000000000E+00  0.00000E+00  9.000E+00
      21    -1     0     0   501   511  0.000000000E+00  0.000000000E+00 -9.417446997E+01  9.417446997E+01  0.000000000E+00  0.00000E+00  9.000E+00
      25     1     1     2     0     0 -6.634010919E+01 -9.653525304E+01  5.490596980E+02  5.751622528E+02  1.250000000E+02  0.00000E+00  9.000E+00
      25     1     1     2     0     0  9.780761520E+01  6.800651657E+01  1.053400335E+02  2.022689758E+02  1.250000000E+02  0.00000E+00  9.000E+00
      21     1     1     2   502   511 -3.146750601E+01  2.852873647E+01 -1.884853030E+01  4.646891255E+01  7.152557373E-07  0.00000E+00  9.000E+00
#rwgt            1           1   3.5097771942117613E-002           8      428706           0
</event>
<event>
      5   9999  3.79277E-02  9.25299E+01 -1.00000E+00  1.25364E-01
      21    -1     0     0   512   501  0.000000000E+00  0.000000000E+00  2.407590128E+02  2.407590128E+02  0.000000000E+00  0.00000E+00  9.000E+00
      21    -1     0     0   501   502  0.000000000E+00  0.000000000E+00 -7.522161627E+02  7.522161627E+02  0.000000000E+00  0.00000E+00  9.000E+00
      25     1     1     2     0     0  9.265261293E+01 -2.890582589E+02 -2.897641704E+02  4.378669412E+02  1.250000000E+02  0.00000E+00  9.000E+00
      25     1     1     2     0     0 -1.850161146E+02  2.946052629E+02 -2.631072882E+02  4.537330368E+02  1.250000000E+02  0.00000E+00  9.000E+00
      21     1     1     2   512   502  9.236350164E+01 -5.547003936E+00  4.141430875E+01  1.013751974E+02  1.261592536E-06  0.00000E+00  9.000E+00
#rwgt            1           1   3.9772761111486997E-002           8      428893           0
</event>
<event>
      5   9999  3.79277E-02  2.18693E+01 -1.00000E+00  1.63230E-01
      21    -1     0     0   502   501  0.000000000E+00  0.000000000E+00  3.327851312E+02  3.327851312E+02  0.000000000E+00  0.00000E+00  9.000E+00
      21    -1     0     0   501   511  0.000000000E+00  0.000000000E+00 -6.198110275E+02  6.198110275E+02  0.000000000E+00  0.00000E+00  9.000E+00
      25     1     1     2     0     0 -3.243448519E+01  1.935152937E+02  2.576276733E+02  3.471270412E+02  1.250000000E+02  0.00000E+00  9.000E+00
      25     1     1     2     0     0  5.414975912E+01 -1.961060690E+02 -5.217981393E+02  5.738362875E+02  1.250000000E+02  0.00000E+00  9.000E+00
      21     1     1     2   502   511 -2.171527393E+01  2.590775322E+00 -2.285543032E+01  3.163283000E+01  4.768371582E-07  0.00000E+00  9.000E+00
#rwgt            1           1   3.4776831270880118E-002           8      429065           0
</event>
<event>
      5   9999  3.79277E-02  1.25650E+02 -1.00000E+00  1.19526E-01
      21    -1     0     0   502   501  0.000000000E+00  0.000000000E+00  7.725945928E+02  7.725945928E+02  0.000000000E+00  0.00000E+00  9.000E+00
      21    -1     0     0   501   512  0.000000000E+00  0.000000000E+00 -9.021294310E+02  9.021294310E+02  0.000000000E+00  0.00000E+00  9.000E+00
      25     1     1     2     0     0  8.953423802E+01  8.088823120E+01  6.730446463E+02  6.951067412E+02  1.250000000E+02  0.00000E+00  9.000E+00
      25     1     1     2     0     0 -1.975487971E+01  2.360505910E+01  3.440630742E+01  1.332525725E+02  1.250000000E+02  0.00000E+00  9.000E+00
      21     1     1     2   502   512 -6.977935831E+01 -1.044932903E+02 -8.369857920E+02  8.463647101E+02  1.078959322E-05  0.00000E+00  9.000E+00
#rwgt            1           1   4.6786969713398609E-002           8      429287           0
</event>
<event>
      5   9999  3.79277E-02  6.86568E+01 -1.00000E+00  1.31648E-01
      21    -1     0     0   502   501  0.000000000E+00  0.000000000E+00  3.807761194E+02  3.807761194E+02  0.000000000E+00  0.00000E+00  9.000E+00
       1    -1     0     0   501     0  0.000000000E+00  0.000000000E+00 -1.877453761E+03  1.877453761E+03  0.000000000E+00  0.00000E+00  9.000E+00
      25     1     1     2     0     0 -5.587559169E+01  6.107896591E+02 -5.082835514E+02  8.063270168E+02  1.250000000E+02  0.00000E+00  9.000E+00
      25     1     1     2     0     0  1.195754613E+02 -5.851755591E+02 -1.738771153E+02  6.344974209E+02  1.250000000E+02  0.00000E+00  9.000E+00
       1     1     1     2   502     0 -6.369986965E+01 -2.561410002E+01 -8.145169750E+02  8.174054429E+02  1.078959322E-05  0.00000E+00  9.000E+00
#rwgt            1           1   3.5881565026113241E-002           8      429379           0
</event>
<event>
      5   9999 -3.79277E-02  5.17674E+01 -1.00000E+00  1.38220E-01
      21    -1     0     0   511   501  0.000000000E+00  0.000000000E+00  2.631585962E+02  2.631585962E+02  0.000000000E+00  0.00000E+00  9.000E+00
      21    -1     0     0   501   502  0.000000000E+00  0.000000000E+00 -5.353470768E+02  5.353470768E+02  0.000000000E+00  0.00000E+00  9.000E+00
      25     1     1     2     0     0 -1.082063278E+01  1.737144348E+02 -1.738760124E+02  2.759558999E+02  1.250000000E+02  0.00000E+00  9.000E+00
      25     1     1     2     0     0 -3.797065126E+01 -1.910139992E+02 -2.627656168E+02  3.501412396E+02  1.250000000E+02  0.00000E+00  9.000E+00
      21     1     1     2   511   502  4.879128404E+01  1.729956440E+01  1.644531487E+02  1.724085335E+02  3.303624740E-06  0.00000E+00  9.000E+00
#rwgt            1           1 -0.22496050453610492                8      429505           0
</event>
<event>
      5   9999  3.79277E-02  6.90071E+01 -1.00000E+00  1.31536E-01
      21    -1     0     0   502   501  0.000000000E+00  0.000000000E+00  4.408292665E+01  4.408292665E+01  0.000000000E+00  0.00000E+00  9.000E+00
      21    -1     0     0   512   502  0.000000000E+00  0.000000000E+00 -3.742975624E+03  3.742975624E+03  0.000000000E+00  0.00000E+00  9.000E+00
      25     1     1     2     0     0  7.044745556E+01  1.979785736E+02 -7.377094430E+02  7.771734567E+02  1.250000000E+02  0.00000E+00  9.000E+00
      25     1     1     2     0     0 -5.624119378E+01 -2.655075504E+02 -9.152860146E+02  9.628243972E+02  1.250000000E+02  0.00000E+00  9.000E+00
      21     1     1     2   512   501 -1.420626178E+01  6.752897680E+01 -2.045897239E+03  2.047060696E+03  2.157918644E-05  0.00000E+00  9.000E+00
#rwgt            1           1  0.20583886396105786                8      429585           0
</event>
<event>
      5   9999  3.79277E-02  2.04338E+02 -1.00000E+00  1.11310E-01
      21    -1     0     0   511   501  0.000000000E+00  0.000000000E+00  1.526106939E+03  1.526106939E+03  0.000000000E+00  0.00000E+00  9.000E+00
      21    -1     0     0   501   502  0.000000000E+00  0.000000000E+00 -1.015142660E+02  1.015142660E+02  0.000000000E+00  0.00000E+00  9.000E+00
      25     1     1     2     0     0 -1.818857787E+02  2.052383772E+02  2.290171545E+02  3.785222385E+02  1.250000000E+02  0.00000E+00  9.000E+00
      25     1     1     2     0     0  1.991214445E+01 -8.066437539E+01  6.333460758E+02  6.508882291E+02  1.250000000E+02  0.00000E+00  9.000E+00
      21     1     1     2   511   502  1.619736342E+02 -1.245740018E+02  5.622294423E+02  5.982107370E+02  7.629394531E-06  0.00000E+00  9.000E+00
#rwgt            1           1   1.7809097000703007E-002           8      429782           0
</event>
<event>
      5   9999  3.79277E-02  9.36344E+01 -1.00000E+00  1.25126E-01
       1    -1     0     0   502     0  0.000000000E+00  0.000000000E+00  2.169082772E+02  2.169082772E+02  0.000000000E+00  0.00000E+00  9.000E+00
      21    -1     0     0   501   502  0.000000000E+00  0.000000000E+00 -7.851966523E+02  7.851966523E+02  0.000000000E+00  0.00000E+00  9.000E+00
      25     1     1     2     0     0  9.318264679E+01  2.376536506E+02 -3.877996994E+02  4.808075188E+02  1.250000000E+02  0.00000E+00  9.000E+00
      25     1     1     2     0     0 -1.282639586E+02 -3.244678092E+02 -2.063078197E+02  4.241685028E+02  1.250000000E+02  0.00000E+00  9.000E+00
       1     1     1     2   501     0  3.508131178E+01  8.681415862E+01  2.581914400E+01  9.712890800E+01  2.105655877E-06  0.00000E+00  9.000E+00
#rwgt            2          17   2.6818047587375653E-005           8      429849           0
</event>
<event>
      5   9999  3.79277E-02  5.37746E+01 -1.00000E+00  1.37296E-01
      21    -1     0     0   511   501  0.000000000E+00  0.000000000E+00  1.485078092E+03  1.485078092E+03  0.000000000E+00  0.00000E+00  9.000E+00
      21    -1     0     0   501   502  0.000000000E+00  0.000000000E+00 -6.702066863E+01  6.702066863E+01  0.000000000E+00  0.00000E+00  9.000E+00
      25     1     1     2     0     0  1.489048415E+02 -1.173531601E+02  1.104604258E+03  1.127705627E+03  1.250000000E+02  0.00000E+00  9.000E+00
      25     1     1     2     0     0 -9.606595138E+01  1.073652732E+02  1.241092080E+02  2.275611224E+02  1.250000000E+02  0.00000E+00  9.000E+00
      21     1     1     2   511   502 -5.283889008E+01  9.987886972E+00  1.893439576E+02  1.968320108E+02  3.814697266E-06  0.00000E+00  9.000E+00
#rwgt            1           1   4.1209936584878926E-002           8      429898           0
</event>
<event>
      5   9999  3.79277E-02  6.37862E+01 -1.00000E+00  1.33298E-01
      21    -1     0     0   502   501  0.000000000E+00  0.000000000E+00  2.396752190E+02  2.396752190E+02  0.000000000E+00  0.00000E+00  9.000E+00
      21    -1     0     0   512   502  0.000000000E+00  0.000000000E+00 -3.873321002E+02  3.873321002E+02  0.000000000E+00  0.00000E+00  9.000E+00
      25     1     1     2     0     0  1.530745981E+02  3.864140556E+01  9.879178515E+01  2.242984789E+02  1.250000000E+02  0.00000E+00  9.000E+00
      25     1     1     2     0     0 -2.134027216E+02 -5.935837605E+01 -1.891353181E+02  3.169563171E+02  1.250000000E+02  0.00000E+00  9.000E+00
      21     1     1     2   512   501  6.032812350E+01  2.071697049E+01 -5.731334833E+01  8.575252327E+01  9.536743164E-07  0.00000E+00  9.000E+00
#rwgt            1           1   7.8405138373213792E-002           8      430048           0
</event>
<event>
      5   9999  3.79277E-02  5.09212E+01 -1.00000E+00  1.38625E-01
      21    -1     0     0   511   501  0.000000000E+00  0.000000000E+00  1.235367742E+02  1.235367742E+02  0.000000000E+00  0.00000E+00  9.000E+00
      21    -1     0     0   501   502  0.000000000E+00  0.000000000E+00 -3.182189457E+02  3.182189457E+02  0.000000000E+00  0.00000E+00  9.000E+00
      25     1     1     2     0     0 -1.204087183E+02  3.656932316E+01 -1.268208864E+02  2.180461237E+02  1.250000000E+02  0.00000E+00  9.000E+00
      25     1     1     2     0     0  7.010743029E+01 -4.449106796E+01 -8.180479067E+01  1.709138107E+02  1.250000000E+02  0.00000E+00  9.000E+00
      21     1     1     2   511   502  5.030128806E+01  7.921744809E+00  1.394350558E+01  5.279578553E+01  2.384185791E-07  0.00000E+00  9.000E+00
#rwgt            1           1   2.3305288741676155E-002           8      430164           0
</event>
<event>
      5   9999  3.79277E-02  5.93646E+01 -1.00000E+00  1.34951E-01
      21    -1     0     0   502   501  0.000000000E+00  0.000000000E+00  2.699350391E+02  2.699350391E+02  0.000000000E+00  0.00000E+00  9.000E+00
       1    -1     0     0   501     0  0.000000000E+00  0.000000000E+00 -3.050250161E+02  3.050250161E+02  0.000000000E+00  0.00000E+00  9.000E+00
      25     1     1     2     0     0 -5.738790327E+01  9.126220978E+01  1.501062200E+02  2.231121683E+02  1.250000000E+02  0.00000E+00  9.000E+00
      25     1     1     2     0     0  9.878795316E+01 -1.338085200E+02 -6.531072489E+01  2.180694167E+02  1.250000000E+02  0.00000E+00  9.000E+00
       1     1     1     2   502     0 -4.140004989E+01  4.254631021E+01 -1.198854721E+02  1.337784701E+02  1.348699152E-06  0.00000E+00  9.000E+00
#rwgt            1           1   3.7627445121271572E-002           8      430298           0
</event>
<event>
      5   9999  3.79277E-02  1.08619E+01 -1.00000E+00  1.91696E-01
      21    -1     0     0   502   511  0.000000000E+00  0.000000000E+00  7.759899005E+02  7.759899005E+02  0.000000000E+00  0.00000E+00  9.000E+00
      21    -1     0     0   501   502  0.000000000E+00  0.000000000E+00 -6.791301331E+01  6.791301331E+01  0.000000000E+00  0.00000E+00  9.000E+00
      25     1     1     2     0     0 -1.053183623E+02 -1.092829479E+02  4.988563560E+02  5.362064752E+02  1.250000000E+02  0.00000E+00  9.000E+00
      25     1     1     2     0     0  1.076559858E+02  9.867558016E+01  1.404443899E+02  2.380678644E+02  1.250000000E+02  0.00000E+00  9.000E+00
      21     1     1     2   501   511 -2.337623468E+00  1.060736777E+01  6.877614131E+01  6.962857422E+01  1.651812370E-06  0.00000E+00  9.000E+00
#rwgt            1           1   1.9431593073687973E-002           8      430512           0
</event>
<event>
      5   9999 -3.79277E-02  4.00085E+01 -1.00000E+00  1.44834E-01
      21    -1     0     0   502   501  0.000000000E+00  0.000000000E+00  1.268438526E+02  1.268438526E+02  0.000000000E+00  0.00000E+00  9.000E+00
      21    -1     0     0   501   512  0.000000000E+00  0.000000000E+00 -7.559433721E+02  7.559433721E+02  0.000000000E+00  0.00000E+00  9.000E+00
      25     1     1     2     0     0 -5.348672327E+01  8.222974082E+01  4.067240336E+01  1.640176949E+02  1.250000000E+02  0.00000E+00  9.000E+00
      25     1     1     2     0     0  2.640757452E+01 -5.277811423E+01 -1.779890257E+02  2.253618925E+02  1.250000000E+02  0.00000E+00  9.000E+00
      21     1     1     2   502   512  2.707914875E+01 -2.945162660E+01 -4.917828972E+02  4.934076373E+02  7.629394531E-06  0.00000E+00  9.000E+00
#rwgt            1           1  -3.1985674956642431E-002           8      430677           0
</event>
<event>
      5   9999  3.79277E-02  6.65868E+01 -1.00000E+00  1.32330E-01
      21    -1     0     0   502   501  0.000000000E+00  0.000000000E+00  1.111356747E+03  1.111356747E+03  0.000000000E+00  0.00000E+00  9.000E+00
      21    -1     0     0   511   502  0.000000000E+00  0.000000000E+00 -5.520763542E+01  5.520763542E+01  0.000000000E+00  0.00000E+00  9.000E+00
      25     1     1     2     0     0  9.443974585E+01  1.001046475E+02  7.982494881E+02  8.196139648E+02  1.250000000E+02  0.00000E+00  9.000E+00
      25     1     1     2     0     0 -1.029552148E+02 -3.406459266E+01  1.854407853E+02  2.485426675E+02  1.250000000E+02  0.00000E+00  9.000E+00
      21     1     1     2   511   501  8.515468922E+00 -6.604005479E+01  7.245883809E+01  9.840775003E+01  1.651812370E-06  0.00000E+00  9.000E+00
#rwgt            1           1   3.7533020233730618E-002           8      430994           0
</event>
<event>
      5   9999  3.79277E-02  2.92167E+01 -1.00000E+00  1.53842E-01
      21    -1     0     0   502   512  0.000000000E+00  0.000000000E+00  9.721066438E+02  9.721066438E+02  0.000000000E+00  0.00000E+00  9.000E+00
      21    -1     0     0   501   502  0.000000000E+00  0.000000000E+00 -6.236148799E+01  6.236148799E+01  0.000000000E+00  0.00000E+00  9.000E+00
      25     1     1     2     0     0 -1.225563525E+02  5.917632663E+01  6.187916037E+02  6.457940430E+02  1.250000000E+02  0.00000E+00  9.000E+00
      25     1     1     2     0     0  1.481107740E+02 -7.333916752E+01  1.817603963E+02  2.756397586E+02  1.250000000E+02  0.00000E+00  9.000E+00
      21     1     1     2   501   512 -2.555442147E+01  1.416284090E+01  1.091931558E+02  1.130343301E+02  2.336015456E-06  0.00000E+00  9.000E+00
#rwgt            1           1   3.7579423524389109E-002           8      431163           0
</event>
<event>
      5   9999  3.79277E-02  3.01500E+01 -1.00000E+00  1.52890E-01
      21    -1     0     0   502   501  0.000000000E+00  0.000000000E+00  7.682645762E+01  7.682645762E+01  0.000000000E+00  0.00000E+00  9.000E+00
      21    -1     0     0   501   511  0.000000000E+00  0.000000000E+00 -4.915775159E+02  4.915775159E+02  0.000000000E+00  0.00000E+00  9.000E+00
      25     1     1     2     0     0  7.410268369E+01 -4.270086518E+01 -2.960926053E+02  3.325814224E+02  1.250000000E+02  0.00000E+00  9.000E+00
      25     1     1     2     0     0 -7.988470644E+01  7.229125606E+01 -7.149295081E+01  1.798439158E+02  1.250000000E+02  0.00000E+00  9.000E+00
      21     1     1     2   502   511  5.782022748E+00 -2.959039088E+01 -4.716550219E+01  5.597863536E+01  6.743495762E-07  0.00000E+00  9.000E+00
#rwgt            1           1   2.6919529858908759E-003           8      431371           0
</event>
<event>
      5   9999  3.79277E-02  1.13654E+02 -1.00000E+00  1.21378E-01
      21    -1     0     0   502   512  0.000000000E+00  0.000000000E+00  3.333274738E+02  3.333274738E+02  0.000000000E+00  0.00000E+00  9.000E+00
      21    -1     0     0   501   502  0.000000000E+00  0.000000000E+00 -2.021929469E+02  2.021929469E+02  0.000000000E+00  0.00000E+00  9.000E+00
      25     1     1     2     0     0  8.187953443E+01 -4.608101847E+01  1.968782580E+01  1.576081499E+02  1.250000000E+02  0.00000E+00  9.000E+00
      25     1     1     2     0     0 -1.878591152E+02  8.713643873E+01  4.431230643E+01  2.459113389E+02  1.250000000E+02  0.00000E+00  9.000E+00
      21     1     1     2   501   512  1.059795808E+02 -4.105542027E+01  6.713439471E+01  1.320009319E+02  3.015782986E-06  0.00000E+00  9.000E+00
#rwgt            1           1   2.6174471131147525E-002           8      431549           0
</event>
<event>
      5   9999  3.79277E-02  5.93824E+01 -1.00000E+00  1.34944E-01
      21    -1     0     0   502   511  0.000000000E+00  0.000000000E+00  1.001960390E+03  1.001960390E+03  0.000000000E+00  0.00000E+00  9.000E+00
      21    -1     0     0   501   502  0.000000000E+00  0.000000000E+00 -7.254389772E+01  7.254389772E+01  0.000000000E+00  0.00000E+00  9.000E+00
      25     1     1     2     0     0  2.270922895E+01  1.686253142E+02  1.784316145E+02  2.764290989E+02  1.250000000E+02  0.00000E+00  9.000E+00
      25     1     1     2     0     0 -7.880715433E+01 -1.491499571E+02  6.088705970E+02  6.440533217E+02  1.250000000E+02  0.00000E+00  9.000E+00
      21     1     1     2   501   511  5.609792538E+01 -1.947535710E+01  1.421142813E+02  1.540218676E+02  1.907348633E-06  0.00000E+00  9.000E+00
#rwgt            1           1   2.9506427318636837E-002           8      431619           0
</event>
<event>
      5   9999  3.79277E-02  7.50797E+01 -1.00000E+00  1.29698E-01
      -2    -1     0     0     0   501  0.000000000E+00  0.000000000E+00  8.996793661E+02  8.996793661E+02  0.000000000E+00  0.00000E+00  9.000E+00
      21    -1     0     0   501   502  0.000000000E+00  0.000000000E+00 -2.053680148E+02  2.053680148E+02  0.000000000E+00  0.00000E+00  9.000E+00
      25     1     1     2     0     0 -2.214231992E+01  1.068142115E+02 -8.270540635E+01  1.853772973E+02  1.250000000E+02  0.00000E+00  9.000E+00
      25     1     1     2     0     0 -3.966227705E+01 -6.418615065E+01  7.182420008E+00  1.461832593E+02  1.250000000E+02  0.00000E+00  9.000E+00
      -2     1     1     2     0   502  6.180459697E+01 -4.262806083E+01  7.698343377E+02  7.734868242E+02  1.525878906E-05  0.00000E+00  9.000E+00
#rwgt            1           1   4.4367078028735685E-002           8      431719           0
</event>
<event>
      5   9999  3.79277E-02  1.61058E+02 -1.00000E+00  1.15182E-01
      21    -1     0     0   502   501  0.000000000E+00  0.000000000E+00  1.939867134E+03  1.939867134E+03  0.000000000E+00  0.00000E+00  9.000E+00
       1    -1     0     0   501     0  0.000000000E+00  0.000000000E+00 -4.984090786E+01  4.984090786E+01  0.000000000E+00  0.00000E+00  9.000E+00
      25     1     1     2     0     0 -1.196122985E+02 -1.024076781E+02  1.038712335E+03  1.057989957E+03  1.250000000E+02  0.00000E+00  9.000E+00
      25     1     1     2     0     0 -3.950175598E+01  1.273547838E+02  6.426061908E+02  6.680923186E+02  1.250000000E+02  0.00000E+00  9.000E+00
       1     1     1     2   502     0  1.591140544E+02 -2.494710562E+01  2.087077003E+02  2.636257661E+02  2.697398305E-06  0.00000E+00  9.000E+00
#rwgt            1           1   4.3647201444139277E-002           8      431829           0
</event>
<event>
      5   9999  3.79277E-02  4.53202E+01 -1.00000E+00  1.41555E-01
      21    -1     0     0   502   511  0.000000000E+00  0.000000000E+00  8.881184458E+01  8.881184458E+01  0.000000000E+00  0.00000E+00  9.000E+00
      21    -1     0     0   501   502  0.000000000E+00  0.000000000E+00 -7.323545966E+02  7.323545966E+02  0.000000000E+00  0.00000E+00  9.000E+00
      25     1     1     2     0     0 -1.268704802E+02  1.695793363E+02 -3.262674675E+02  4.085691256E+02  1.250000000E+02  0.00000E+00  9.000E+00
      25     1     1     2     0     0  1.089453654E+02 -1.279547328E+02 -2.958117773E+02  3.624515332E+02  1.250000000E+02  0.00000E+00  9.000E+00
      21     1     1     2   501   511  1.792511477E+01 -4.162460346E+01 -2.146350721E+01  5.014578242E+01  7.152557373E-07  0.00000E+00  9.000E+00
#rwgt            1           1   2.5034389829405933E-002           8      431875           0
</event>
<event>
      5   9999  3.79277E-02  3.79997E+01 -1.00000E+00  1.46236E-01
      21    -1     0     0   502   501  0.000000000E+00  0.000000000E+00  5.831660594E+02  5.831660594E+02  0.000000000E+00  0.00000E+00  9.000E+00
       5    -1     0     0   501     0  0.000000000E+00  0.000000000E+00 -2.611436922E+02  2.611436922E+02  0.000000000E+00  0.00000E+00  9.000E+00
      25     1     1     2     0     0  2.848180136E+01 -2.437288178E+02  2.888258874E+02  3.990743576E+02  1.250000000E+02  0.00000E+00  9.000E+00
      25     1     1     2     0     0 -3.052817414E+01  2.057842461E+02  1.744932509E+02  2.989180824E+02  1.250000000E+02  0.00000E+00  9.000E+00
       5     1     1     2   502     0  2.046372776E+00  3.794457165E+01 -1.412967711E+02  1.463173117E+02  1.907348633E-06  0.00000E+00  9.000E+00
#rwgt            1           1   2.8851320717088558E-002           8      432038           0
</event>
<event>
      5   9999  3.79277E-02  5.11528E+01 -1.00000E+00  1.38513E-01
      21    -1     0     0   511   501  0.000000000E+00  0.000000000E+00  4.974203544E+02  4.974203544E+02  0.000000000E+00  0.00000E+00  9.000E+00
      21    -1     0     0   501   502  0.000000000E+00  0.000000000E+00 -4.729476033E+02  4.729476033E+02  0.000000000E+00  0.00000E+00  9.000E+00
      25     1     1     2     0     0  6.417854036E+01  2.285808112E+02 -2.189131885E+02  3.462889781E+02  1.250000000E+02  0.00000E+00  9.000E+00
      25     1     1     2     0     0 -5.998007788E+01 -2.795609948E+02 -5.884254315E+01  3.175522075E+02  1.250000000E+02  0.00000E+00  9.000E+00
      21     1     1     2   511   502 -4.198462485E+00  5.098018368E+01  3.022284828E+02  3.065267721E+02  5.394796609E-06  0.00000E+00  9.000E+00
#rwgt            1           1   4.1188650937985453E-002           8      432207           0
</event>
<event>
      5   9999  3.79277E-02  1.20959E+02 -1.00000E+00  1.20222E-01
       5    -1     0     0   502     0  0.000000000E+00  0.000000000E+00  3.666110016E+01  3.666110016E+01  0.000000000E+00  0.00000E+00  9.000E+00
      21    -1     0     0   501   502  0.000000000E+00  0.000000000E+00 -1.867447051E+03  1.867447051E+03  0.000000000E+00  0.00000E+00  9.000E+00
      25     1     1     2     0     0 -8.978937260E+01 -1.483295413E+02 -7.106717603E+02  7.421207012E+02  1.250000000E+02  0.00000E+00  9.000E+00
      25     1     1     2     0     0 -3.024569308E+01  1.334041693E+02 -7.527461652E+02  7.752182038E+02  1.250000000E+02  0.00000E+00  9.000E+00
       5     1     1     2   501     0  1.200350657E+02  1.492537209E+01 -3.673680257E+02  3.867692465E+02  5.394796609E-06  0.00000E+00  9.000E+00
#rwgt            2          21   4.3799872143662553E-006           8      432417           0
</event>
<event>
      5   9999  3.79277E-02  1.51262E+01 -1.00000E+00  1.77041E-01
      21    -1     0     0   502   501  0.000000000E+00  0.000000000E+00  2.471915650E+02  2.471915650E+02  0.000000000E+00  0.00000E+00  9.000E+00
      21    -1     0     0   511   502  0.000000000E+00  0.000000000E+00 -8.103195454E+02  8.103195454E+02  0.000000000E+00  0.00000E+00  9.000E+00
      25     1     1     2     0     0 -1.012466621E+02 -2.796456167E+02  7.206549866E+01  3.305616336E+02  1.250000000E+02  0.00000E+00  9.000E+00
      25     1     1     2     0     0  1.043126374E+02  2.944578704E+02 -6.205336869E+02  7.058849909E+02  1.250000000E+02  0.00000E+00  9.000E+00
      21     1     1     2   511   501 -3.065975298E+00 -1.481225370E+01 -1.465979208E+01  2.106448594E+01  0.000000000E+00  0.00000E+00  9.000E+00
#rwgt            1           1   4.0032577795666893E-002           8      432496           0
</event>
<event>
      5   9999  3.79277E-02  5.01339E+01 -1.00000E+00  1.39009E-01
      21    -1     0     0   502   501  0.000000000E+00  0.000000000E+00  1.286281890E+02  1.286281890E+02  0.000000000E+00  0.00000E+00  9.000E+00
      21    -1     0     0   512   502  0.000000000E+00  0.000000000E+00 -1.274631375E+03  1.274631375E+03  0.000000000E+00  0.00000E+00  9.000E+00
      25     1     1     2     0     0  1.613679927E+02  3.962685253E+01 -1.651883837E+02  2.655600094E+02  1.250000000E+02  0.00000E+00  9.000E+00
      25     1     1     2     0     0 -1.128070395E+02 -2.716730406E+01 -1.569016044E+01  1.712736749E+02  1.250000000E+02  0.00000E+00  9.000E+00
      21     1     1     2   512   501 -4.856095324E+01 -1.245954847E+01 -9.651246418E+02  9.664258796E+02  1.525878906E-05  0.00000E+00  9.000E+00
#rwgt            1           1   2.8799651333648701E-002           8      432877           0
</event>
<event>
      5   9999  3.79277E-02  4.67394E+01 -1.00000E+00  1.40767E-01
      21    -1     0     0   502   511  0.000000000E+00  0.000000000E+00  2.610106053E+02  2.610106053E+02  0.000000000E+00  0.00000E+00  9.000E+00
      21    -1     0     0   501   502  0.000000000E+00  0.000000000E+00 -3.569264770E+02  3.569264770E+02  0.000000000E+00  0.00000E+00  9.000E+00
      25     1     1     2     0     0  9.219454823E+01  9.652003274E+01 -1.312280491E+02  2.250816570E+02  1.250000000E+02  0.00000E+00  9.000E+00
      25     1     1     2     0     0 -5.010284910E+01 -7.620112051E+01 -1.416788086E+02  2.097970235E+02  1.250000000E+02  0.00000E+00  9.000E+00
      21     1     1     2   501   511 -4.209169913E+01 -2.031891224E+01  1.769909860E+02  1.830584018E+02  1.907348633E-06  0.00000E+00  9.000E+00
#rwgt            1           1   3.2497053640444175E-002           8      433051           0
</event>
<event>
      5   9999 -3.79277E-02  7.27792E+01 -1.00000E+00  1.30370E-01
      21    -1     0     0   502   501  0.000000000E+00  0.000000000E+00  8.479514682E+01  8.479514682E+01  0.000000000E+00  0.00000E+00  9.000E+00
      21    -1     0     0   501   512  0.000000000E+00  0.000000000E+00 -9.572362106E+02  9.572362106E+02  0.000000000E+00  0.00000E+00  9.000E+00
      25     1     1     2     0     0  2.086380132E+02  1.233814922E+02 -4.328074079E+02  5.115662865E+02  1.250000000E+02  0.00000E+00  9.000E+00
      25     1     1     2     0     0 -1.359019392E+02 -1.258879607E+02 -3.168411581E+02  3.877246900E+02  1.250000000E+02  0.00000E+00  9.000E+00
      21     1     1     2   502   512 -7.273607400E+01  2.506468450E+00 -1.227924978E+02  1.427403810E+02  1.907348633E-06  0.00000E+00  9.000E+00
#rwgt            1           1 -0.29904805486662828                8      433108           0
</event>
<event>
      5   9999  3.79277E-02  1.28025E+02 -1.00000E+00  1.19187E-01
      21    -1     0     0   502   501  0.000000000E+00  0.000000000E+00  2.316350121E+03  2.316350121E+03  0.000000000E+00  0.00000E+00  9.000E+00
      21    -1     0     0   501   511  0.000000000E+00  0.000000000E+00 -3.412846100E+01  3.412846100E+01  0.000000000E+00  0.00000E+00  9.000E+00
      25     1     1     2     0     0  1.338725536E+02 -1.143309639E+00  9.454925749E+02  9.630702866E+02  1.250000000E+02  0.00000E+00  9.000E+00
      25     1     1     2     0     0 -1.548115980E+02  1.274442716E+02  9.897157367E+02  1.017531775E+03  1.250000000E+02  0.00000E+00  9.000E+00
      21     1     1     2   502   511  2.093904439E+01 -1.263009619E+02  3.470133489E+02  3.698765211E+02  7.629394531E-06  0.00000E+00  9.000E+00
#rwgt            1           1   7.5486884509110536E-002           8      433307           0
</event>
<event>
      5   9999 -3.79277E-02  7.22290E+01 -1.00000E+00  1.30535E-01
       2    -1     0     0   502     0  0.000000000E+00  0.000000000E+00  2.121634151E+03  2.121634151E+03  0.000000000E+00  0.00000E+00  9.000E+00
      21    -1     0     0   501   502  0.000000000E+00  0.000000000E+00 -2.234033747E+02  2.234033747E+02  0.000000000E+00  0.00000E+00  9.000E+00
      25     1     1     2     0     0 -8.354201877E+01  1.111036475E+02 -6.734339996E+01  1.987043606E+02  1.250000000E+02  0.00000E+00  9.000E+00
      25     1     1     2     0     0  3.926576427E+01 -1.681706383E+02  3.695876452E+01  2.163656953E+02  1.250000000E+02  0.00000E+00  9.000E+00
       2     1     1     2   501     0  4.427625449E+01  5.706699077E+01  1.928615412E+03  1.929967470E+03  0.000000000E+00  0.00000E+00  9.000E+00
#rwgt            1           1  -6.6741401246851281E-002           8      433419           0
</event>
<event>
      5   9999  3.79277E-02  5.77911E+01 -1.00000E+00  1.35580E-01
      21    -1     0     0   502   501  0.000000000E+00  0.000000000E+00  6.193408720E+01  6.193408720E+01  0.000000000E+00  0.00000E+00  9.000E+00
       2    -1     0     0   501     0  0.000000000E+00  0.000000000E+00 -7.800287195E+02  7.800287195E+02  0.000000000E+00  0.00000E+00  9.000E+00
      25     1     1     2     0     0  1.020021200E+02  1.293865431E+01 -1.224256841E+02  2.029406056E+02  1.250000000E+02  0.00000E+00  9.000E+00
      25     1     1     2     0     0 -9.156429670E+01 -6.977936330E+01 -3.905946579E+02  4.259605225E+02  1.250000000E+02  0.00000E+00  9.000E+00
       2     1     1     2   502     0 -1.043782330E+01  5.684070899E+01 -2.050742903E+02  2.130616786E+02  0.000000000E+00  0.00000E+00  9.000E+00
#rwgt            1           1   1.5570765831920267E-002           8      433558           0
</event>
<event>
      5   9999  3.79277E-02  7.04803E+01 -1.00000E+00  1.31070E-01
      21    -1     0     0   511   501  0.000000000E+00  0.000000000E+00  7.625967719E+01  7.625967719E+01  0.000000000E+00  0.00000E+00  9.000E+00
      21    -1     0     0   501   502  0.000000000E+00  0.000000000E+00 -7.664235547E+02  7.664235547E+02  0.000000000E+00  0.00000E+00  9.000E+00
      25     1     1     2     0     0 -1.551177057E+02  1.559032749E+01 -4.975531646E+02  5.361797390E+02  1.250000000E+02  0.00000E+00  9.000E+00
      25     1     1     2     0     0  8.538210843E+01 -2.580911720E+01 -1.769735770E+02  2.343093296E+02  1.250000000E+02  0.00000E+00  9.000E+00
      21     1     1     2   511   502  6.973559728E+01  1.021878971E+01 -1.563713586E+01  7.219416326E+01  1.735713456E-06  0.00000E+00  9.000E+00
#rwgt            1           1   3.8897856433493160E-002           8      433864           0
</event>
<event>
      5   9999  3.79277E-02  5.79932E+00 -1.00000E+00  2.27791E-01
      21    -1     0     0   502   501  0.000000000E+00  0.000000000E+00  7.898162079E+01  7.898162079E+01  0.000000000E+00  0.00000E+00  9.000E+00
      21    -1     0     0   501   512  0.000000000E+00  0.000000000E+00 -4.133088387E+02  4.133088387E+02  0.000000000E+00  0.00000E+00  9.000E+00
      25     1     1     2     0     0  1.155932171E+02 -2.634344272E+01 -2.121572053E+02  2.732973629E+02  1.250000000E+02  0.00000E+00  9.000E+00
      25     1     1     2     0     0 -1.211157859E+02  2.457332583E+01 -1.164788572E+02  2.108677456E+02  1.250000000E+02  0.00000E+00  9.000E+00
      21     1     1     2   502   512  5.522568756E+00  1.770116888E+00 -5.691155406E+00  8.125351028E+00  0.000000000E+00  0.00000E+00  9.000E+00
#rwgt            1           1   4.1797694135911424E-002           8      434209           0
</event>
<event>
      5   9999  3.79277E-02  5.01840E+01 -1.00000E+00  1.38985E-01
       1    -1     0     0   502     0  0.000000000E+00  0.000000000E+00  5.295749469E+02  5.295749469E+02  0.000000000E+00  0.00000E+00  9.000E+00
      21    -1     0     0   501   502  0.000000000E+00  0.000000000E+00 -1.304209154E+03  1.304209154E+03  0.000000000E+00  0.00000E+00  9.000E+00
      25     1     1     2     0     0  1.597121025E+02  1.287895291E+02 -8.638801699E+02  8.966652923E+02  1.250000000E+02  0.00000E+00  9.000E+00
      25     1     1     2     0     0 -2.085071588E+02 -1.405143804E+02 -3.759429208E+02  4.692308665E+02  1.250000000E+02  0.00000E+00  9.000E+00
       1     1     1     2   501     0  4.879505629E+01  1.172485127E+01  4.651888833E+02  4.678879425E+02  1.078959322E-05  0.00000E+00  9.000E+00
#rwgt            1           1   3.0157656904682553E-002           8      434468           0
</event>
<event>
      5   9999  3.79277E-02  4.79802E+01 -1.00000E+00  1.40105E-01
      21    -1     0     0   502   501  0.000000000E+00  0.000000000E+00  1.811847160E+01  1.811847160E+01  0.000000000E+00  0.00000E+00  9.000E+00
      21    -1     0     0   511   502  0.000000000E+00  0.000000000E+00 -3.587416341E+03  3.587416341E+03  0.000000000E+00  0.00000E+00  9.000E+00
      25     1     1     2     0     0  4.971986581E+01  1.573214339E+02 -1.067380085E+03  1.087265995E+03  1.250000000E+02  0.00000E+00  9.000E+00
      25     1     1     2     0     0 -9.115999956E+01 -1.815042964E+02 -2.096743663E+03  2.110263714E+03  1.250000000E+02  0.00000E+00  9.000E+00
      21     1     1     2   511   501  4.144013375E+01  2.418286246E+01 -4.051741223E+02  4.080051040E+02  5.394796609E-06  0.00000E+00  9.000E+00
#rwgt            1           1   2.4490888775832210E-002           8      434535           0
</event>
<event>
      5   9999  3.79277E-02  1.38533E+02 -1.00000E+00  1.17779E-01
      21    -1     0     0   502   501  0.000000000E+00  0.000000000E+00  1.523932900E+02  1.523932900E+02  0.000000000E+00  0.00000E+00  9.000E+00
       2    -1     0     0   501     0  0.000000000E+00  0.000000000E+00 -3.020236985E+03  3.020236985E+03  0.000000000E+00  0.00000E+00  9.000E+00
      25     1     1     2     0     0  2.552969877E-01 -5.752291246E+01 -2.042311724E+02  2.462606798E+02  1.250000000E+02  0.00000E+00  9.000E+00
      25     1     1     2     0     0  9.189420837E+01 -4.591738569E+01  7.914460588E+01  1.801161305E+02  1.250000000E+02  0.00000E+00  9.000E+00
       2     1     1     2   502     0 -9.214950536E+01  1.034402982E+02 -2.742757128E+03  2.746253464E+03  5.285799584E-05  0.00000E+00  9.000E+00
#rwgt            2          13   2.3377917953932960E-003           8      434687           0
</event>
<event>
      5   9999  3.79277E-02  9.36991E+01 -1.00000E+00  1.25113E-01
      21    -1     0     0   502   511  0.000000000E+00  0.000000000E+00  4.625356225E+02  4.625356225E+02  0.000000000E+00  0.00000E+00  9.000E+00
      21    -1     0     0   501   502  0.000000000E+00  0.000000000E+00 -1.304751247E+02  1.304751247E+02  0.000000000E+00  0.00000E+00  9.000E+00
      25     1     1     2     0     0 -1.809833103E+02  7.844870656E+01  1.339284716E+02  2.692043716E+02  1.250000000E+02  0.00000E+00  9.000E+00
      25     1     1     2     0     0  9.585046847E+01 -3.930883445E+01  1.291198970E+02  2.074353986E+02  1.250000000E+02  0.00000E+00  9.000E+00
      21     1     1     2   501   511  8.513284179E+01 -3.913987210E+01  6.901212919E+01  1.163709771E+02  9.536743164E-07  0.00000E+00  9.000E+00
#rwgt            1           1   3.2469755738162583E-002           8      434886           0
</event>
<event>
      5   9999  3.79277E-02  7.98485E+01 -1.00000E+00  1.28389E-01
       2    -1     0     0   502     0  0.000000000E+00  0.000000000E+00  1.389023887E+03  1.389023887E+03  0.000000000E+00  0.00000E+00  9.000E+00
      21    -1     0     0   501   502  0.000000000E+00  0.000000000E+00 -1.021696402E+02  1.021696402E+02  0.000000000E+00  0.00000E+00  9.000E+00
      25     1     1     2     0     0  7.814172021E+01  2.364801465E+02  3.124954719E+02  4.186972750E+02  1.250000000E+02  0.00000E+00  9.000E+00
      25     1     1     2     0     0 -1.207796573E+02 -1.689687419E+02  2.669307901E+02  3.605762167E+02  1.250000000E+02  0.00000E+00  9.000E+00
       2     1     1     2   501     0  4.263793707E+01 -6.751140458E+01  7.074279847E+02  7.119200355E+02  1.078959322E-05  0.00000E+00  9.000E+00
#rwgt            1           1   4.2315089376891428E-002           8      434982           0
</event>
<event>
      5   9999  3.79277E-02  2.16245E+02 -1.00000E+00  1.10427E-01
      21    -1     0     0   502   511  0.000000000E+00  0.000000000E+00  1.064463608E+02  1.064463608E+02  0.000000000E+00  0.00000E+00  9.000E+00
      21    -1     0     0   501   502  0.000000000E+00  0.000000000E+00 -9.922056471E+02  9.922056471E+02  0.000000000E+00  0.00000E+00  9.000E+00
      25     1     1     2     0     0  3.821600470E+01 -6.559109507E+01 -7.827881617E+01  1.658771468E+02  1.250000000E+02  0.00000E+00  9.000E+00
      25     1     1     2     0     0 -7.236246700E+01 -1.479410052E+02 -5.938019539E+02  6.287675470E+02  1.250000000E+02  0.00000E+00  9.000E+00
      21     1     1     2   501   511  3.414646229E+01  2.135321002E+02 -2.136785162E+02  3.040073141E+02  2.697398305E-06  0.00000E+00  9.000E+00
#rwgt            1           1   2.2077545803255012E-002           8      435076           0
</event>
<event>
      5   9999  3.79277E-02  7.77165E+01 -1.00000E+00  1.28961E-01
      21    -1     0     0   502   501  0.000000000E+00  0.000000000E+00  2.150749000E+02  2.150749000E+02  0.000000000E+00  0.00000E+00  9.000E+00
      21    -1     0     0   512   502  0.000000000E+00  0.000000000E+00 -3.392799490E+02  3.392799490E+02  0.000000000E+00  0.00000E+00  9.000E+00
      25     1     1     2     0     0  1.768754020E+01  1.483377458E+02 -2.073871542E+02  2.845195382E+02  1.250000000E+02  0.00000E+00  9.000E+00
      25     1     1     2     0     0 -1.307595519E+01 -7.075816699E+01  1.163758463E+02  1.853268367E+02  1.250000000E+02  0.00000E+00  9.000E+00
      21     1     1     2   512   501 -4.611585008E+00 -7.757957879E+01 -3.319374111E+01  8.450847419E+01  1.651812370E-06  0.00000E+00  9.000E+00
#rwgt            1           1   4.3545065983866253E-002           8      435223           0
</event>
<event>
      5   9999  3.79277E-02  6.04846E+01 -1.00000E+00  1.34517E-01
      21    -1     0     0   502   511  0.000000000E+00  0.000000000E+00  3.296467548E+02  3.296467548E+02  0.000000000E+00  0.00000E+00  9.000E+00
      21    -1     0     0   501   502  0.000000000E+00  0.000000000E+00 -1.834142821E+02  1.834142821E+02  0.000000000E+00  0.00000E+00  9.000E+00
      25     1     1     2     0     0 -1.327096510E+02  1.328547568E+02  6.581774669E+01  2.349876883E+02  1.250000000E+02  0.00000E+00  9.000E+00
      25     1     1     2     0     0  1.096943150E+02 -7.692016117E+01  7.568441330E+00  1.833898450E+02  1.250000000E+02  0.00000E+00  9.000E+00
      21     1     1     2   501   511  2.301533605E+01 -5.593459560E+01  7.284628470E+01  9.468350370E+01  0.000000000E+00  0.00000E+00  9.000E+00
#rwgt            1           1   5.3214127606169163E-002           8      435320           0
</event>
<event>
      5   9999  3.79277E-02  1.26761E+02 -1.00000E+00  1.19367E-01
      21    -1     0     0   502   501  0.000000000E+00  0.000000000E+00  5.859597869E+01  5.859597869E+01  0.000000000E+00  0.00000E+00  9.000E+00
      21    -1     0     0   512   502  0.000000000E+00  0.000000000E+00 -1.502510043E+03  1.502510043E+03  0.000000000E+00  0.00000E+00  9.000E+00
      25     1     1     2     0     0 -8.830458713E+01 -1.510365237E+00 -2.759988350E+02  3.155952126E+02  1.250000000E+02  0.00000E+00  9.000E+00
      25     1     1     2     0     0  1.435052737E+02 -1.126001330E+02 -3.248526144E+02  3.929717224E+02  1.250000000E+02  0.00000E+00  9.000E+00
      21     1     1     2   512   501 -5.520068654E+01  1.141104983E+02 -8.430626147E+02  8.525390865E+02  1.078959322E-05  0.00000E+00  9.000E+00
#rwgt            1           1   4.7315669232670214E-002           8      435400           0
</event>
<event>
      5   9999  3.79277E-02  2.42136E+01 -1.00000E+00  1.59798E-01
      21    -1     0     0   511   501  0.000000000E+00  0.000000000E+00  7.832157568E+02  7.832157568E+02  0.000000000E+00  0.00000E+00  9.000E+00
      21    -1     0     0   501   502  0.000000000E+00  0.000000000E+00 -4.108898983E+02  4.108898983E+02  0.000000000E+00  0.00000E+00  9.000E+00
      25     1     1     2     0     0  1.610102810E+02  8.020242797E+01 -1.470770002E+02  2.638434840E+02  1.250000000E+02  0.00000E+00  9.000E+00
      25     1     1     2     0     0 -1.597153175E+02 -5.602348439E+01 -1.512757503E+02  2.591466111E+02  1.250000000E+02  0.00000E+00  9.000E+00
      21     1     1     2   511   502 -1.294963534E+00 -2.417894358E+01  6.706786091E+02  6.711155600E+02  7.629394531E-06  0.00000E+00  9.000E+00
#rwgt            1           1   4.0583603352459599E-002           8      435476           0
</event>
<event>
      5   9999  3.79277E-02  6.28153E+01 -1.00000E+00  1.33648E-01
      21    -1     0     0   502   501  0.000000000E+00  0.000000000E+00  5.313831428E+02  5.313831428E+02  0.000000000E+00  0.00000E+00  9.000E+00
      21    -1     0     0   512   502  0.000000000E+00  0.000000000E+00 -1.404251878E+02  1.404251878E+02  0.000000000E+00  0.00000E+00  9.000E+00
      25     1     1     2     0     0 -2.644497484E+01 -1.685939432E+02  1.689123038E+02  2.707020886E+02  1.250000000E+02  0.00000E+00  9.000E+00
      25     1     1     2     0     0 -3.270614911E+01  1.897339884E+02  2.435810315E+02  3.347019532E+02  1.250000000E+02  0.00000E+00  9.000E+00
      21     1     1     2   512   501  5.915112395E+01 -2.114004517E+01 -2.153538037E+01  6.640428889E+01  1.327458468E-06  0.00000E+00  9.000E+00
#rwgt            1           1   1.0274659943323026E-002           8      435767           0
</event>
<event>
      5   9999  3.79277E-02  1.75810E+01 -1.00000E+00  1.71125E-01
      21    -1     0     0   502   501  0.000000000E+00  0.000000000E+00  3.338971003E+02  3.338971003E+02  0.000000000E+00  0.00000E+00  9.000E+00
      21    -1     0     0   511   502  0.000000000E+00  0.000000000E+00 -3.299191348E+02  3.299191348E+02  0.000000000E+00  0.00000E+00  9.000E+00
      25     1     1     2     0     0  1.541151474E+02 -2.322321759E+01  7.593977610E+01  2.137349903E+02  1.250000000E+02  0.00000E+00  9.000E+00
      25     1     1     2     0     0 -1.365344926E+02  2.311235156E+01  1.425941551E+02  2.348061787E+02  1.250000000E+02  0.00000E+00  9.000E+00
      21     1     1     2   511   501 -1.758065479E+01  1.108660360E-01 -2.145559656E+02  2.152750662E+02  2.697398305E-06  0.00000E+00  9.000E+00
#rwgt            1           1   4.0140045545603582E-002           8      435852           0
</event>
<event>
      5   9999 -3.79277E-02  1.12873E+01 -1.00000E+00  1.89868E-01
      21    -1     0     0   502   501  0.000000000E+00  0.000000000E+00  2.599955041E+01  2.599955041E+01  0.000000000E+00  0.00000E+00  9.000E+00
      21    -1     0     0   512   502  0.000000000E+00  0.000000000E+00 -1.824972380E+03  1.824972380E+03  0.000000000E+00  0.00000E+00  9.000E+00
      25     1     1     2     0     0  1.589201927E+02  8.564624693E+00 -8.404707215E+02  8.644911880E+02  1.250000000E+02  0.00000E+00  9.000E+00
      25     1     1     2     0     0 -1.636264929E+02 -1.882399335E+01 -7.590126804E+02  7.866722449E+02  1.250000000E+02  0.00000E+00  9.000E+00
      21     1     1     2   512   501  4.706300204E+00  1.025936866E+01 -1.994894280E+02  1.998084978E+02  0.000000000E+00  0.00000E+00  9.000E+00
#rwgt            1           1  -5.3434433183900065E-002           8      436105           0
</event>
<event>
      5   9999  3.79277E-02  1.69200E+02 -1.00000E+00  1.14358E-01
       2    -1     0     0   502     0  0.000000000E+00  0.000000000E+00  8.823997854E+02  8.823997854E+02  0.000000000E+00  0.00000E+00  9.000E+00
      21    -1     0     0   501   502  0.000000000E+00  0.000000000E+00 -9.722361904E+01  9.722361904E+01  0.000000000E+00  0.00000E+00  9.000E+00
      25     1     1     2     0     0  3.260696561E+01 -9.185916767E+01  3.698073463E+02  4.023478523E+02  1.250000000E+02  0.00000E+00  9.000E+00
      25     1     1     2     0     0 -1.472976546E+02 -3.253765975E+01  1.013470155E+02  2.205708863E+02  1.250000000E+02  0.00000E+00  9.000E+00
       2     1     1     2   501     0  1.146906890E+02  1.243968274E+02  3.140218045E+02  3.567046657E+02  3.814697266E-06  0.00000E+00  9.000E+00
#rwgt            1           1   4.0995403202583457E-002           8      436422           0
</event>
<event>
      5   9999  3.79277E-02  6.61797E+01 -1.00000E+00  1.32467E-01
      21    -1     0     0   502   501  0.000000000E+00  0.000000000E+00  2.434200644E+02  2.434200644E+02  0.000000000E+00  0.00000E+00  9.000E+00
      21    -1     0     0   511   502  0.000000000E+00  0.000000000E+00 -3.264351012E+02  3.264351012E+02  0.000000000E+00  0.00000E+00  9.000E+00
      25     1     1     2     0     0 -8.776524026E+01  9.174188434E+01  1.195579647E+02  2.145656489E+02  1.250000000E+02  0.00000E+00  9.000E+00
      25     1     1     2     0     0  1.520514781E+02 -1.074590401E+02 -1.707010886E+02  2.818349853E+02  1.250000000E+02  0.00000E+00  9.000E+00
      21     1     1     2   511   501 -6.428623786E+01  1.571715572E+01 -3.187191285E+01  7.345453145E+01  3.371747881E-07  0.00000E+00  9.000E+00
#rwgt            1           1   3.5928724066553105E-002           8      436484           0
</event>
<event>
      5   9999  3.79277E-02  5.34700E+01 -1.00000E+00  1.37433E-01
      21    -1     0     0   512   501  0.000000000E+00  0.000000000E+00  1.203763928E+03  1.203763928E+03  0.000000000E+00  0.00000E+00  9.000E+00
      21    -1     0     0   501   502  0.000000000E+00  0.000000000E+00 -6.250897126E+01  6.250897126E+01  0.000000000E+00  0.00000E+00  9.000E+00
      25     1     1     2     0     0 -1.837153338E+01 -1.792503827E+02  2.183551493E+02  3.094708131E+02  1.250000000E+02  0.00000E+00  9.000E+00
      25     1     1     2     0     0  1.793776388E+01  1.257821379E+02  5.057177963E+02  5.362074217E+02  1.250000000E+02  0.00000E+00  9.000E+00
      21     1     1     2   512   502  4.337695041E-01  5.346824474E+01  4.171820109E+02  4.205946642E+02  5.394796609E-06  0.00000E+00  9.000E+00
#rwgt            1           1   4.0348284209402445E-002           8      436554           0
</event>
<event>
      5   9999  3.79277E-02  5.09095E+01 -1.00000E+00  1.38630E-01
      21    -1     0     0   502   501  0.000000000E+00  0.000000000E+00  1.920322446E+02  1.920322446E+02  0.000000000E+00  0.00000E+00  9.000E+00
      21    -1     0     0   501   511  0.000000000E+00  0.000000000E+00 -3.406219313E+02  3.406219313E+02  0.000000000E+00  0.00000E+00  9.000E+00
      25     1     1     2     0     0  1.475179073E+02 -3.905669438E+01 -1.143792532E+02  2.280231829E+02  1.250000000E+02  0.00000E+00  9.000E+00
      25     1     1     2     0     0 -1.862580348E+02  7.208668879E+01  1.194183707E+01  2.359155648E+02  1.250000000E+02  0.00000E+00  9.000E+00
      21     1     1     2   502   511  3.874012746E+01 -3.302999440E+01 -4.615227059E+01  6.871542830E+01  2.023048729E-06  0.00000E+00  9.000E+00
#rwgt            1           1   2.7453645546929063E-002           8      436713           0
</event>
<event>
      5   9999  3.79277E-02  2.41012E+01 -1.00000E+00  1.59951E-01
      21    -1     0     0   512   501  0.000000000E+00  0.000000000E+00  1.698123399E+02  1.698123399E+02  0.000000000E+00  0.00000E+00  9.000E+00
      21    -1     0     0   501   502  0.000000000E+00  0.000000000E+00 -3.055470945E+02  3.055470945E+02  0.000000000E+00  0.00000E+00  9.000E+00
      25     1     1     2     0     0 -2.519386091E+01  2.828460714E+01 -2.127557404E+02  2.496492634E+02  1.250000000E+02  0.00000E+00  9.000E+00
      25     1     1     2     0     0  3.974592167E+01 -4.749677992E+01 -5.631763768E+00  1.396151824E+02  1.250000000E+02  0.00000E+00  9.000E+00
      21     1     1     2   512   502 -1.455206076E+01  1.921217277E+01  8.265274955E+01  8.609498861E+01  1.348699152E-06  0.00000E+00  9.000E+00
#rwgt            1           1   3.7927293268035137E-002           8      436819           0
</event>
<event>
      5   9999  3.79277E-02  7.42166E+01 -1.00000E+00  1.29947E-01
      21    -1     0     0   511   501  0.000000000E+00  0.000000000E+00  5.329899623E+01  5.329899623E+01  0.000000000E+00  0.00000E+00  9.000E+00
      21    -1     0     0   501   502  0.000000000E+00  0.000000000E+00 -1.134656924E+03  1.134656924E+03  0.000000000E+00  0.00000E+00  9.000E+00
      25     1     1     2     0     0  1.139432626E+02  6.920028365E+01 -3.701182406E+02  4.127762812E+02  1.250000000E+02  0.00000E+00  9.000E+00
      25     1     1     2     0     0 -6.404264548E+01 -1.241368942E+02 -6.571036000E+02  6.833165958E+02  1.250000000E+02  0.00000E+00  9.000E+00
      21     1     1     2   511   502 -4.990061716E+01  5.493661059E+01 -5.413608733E+01  9.186304332E+01  1.348699152E-06  0.00000E+00  9.000E+00
#rwgt            1           1   4.0363091626654794E-002           8      437054           0
</event>
<event>
      5   9999  3.79277E-02  1.04168E+02 -1.00000E+00  1.23035E-01
      21    -1     0     0   502   501  0.000000000E+00  0.000000000E+00  3.595410637E+02  3.595410637E+02  0.000000000E+00  0.00000E+00  9.000E+00
      21    -1     0     0   501   512  0.000000000E+00  0.000000000E+00 -2.776719293E+02  2.776719293E+02  0.000000000E+00  0.00000E+00  9.000E+00
      25     1     1     2     0     0  1.349846575E+02 -1.741005156E+02  1.750689900E+02  3.079058274E+02  1.250000000E+02  0.00000E+00  9.000E+00
      25     1     1     2     0     0 -1.350709809E+02  6.993234499E+01 -1.201881472E+01  1.972413615E+02  1.250000000E+02  0.00000E+00  9.000E+00
      21     1     1     2   502   512  8.632345146E-02  1.041681706E+02 -8.118104098E+01  1.320658042E+02  2.132480600E-06  0.00000E+00  9.000E+00
#rwgt            1           1   1.6179045643667216E-002           8      437108           0
</event>
<event>
      5   9999  3.79277E-02  1.15987E+01 -1.00000E+00  1.88595E-01
      21    -1     0     0   502   501  0.000000000E+00  0.000000000E+00  1.287828568E+02  1.287828568E+02  0.000000000E+00  0.00000E+00  9.000E+00
      21    -1     0     0   501   511  0.000000000E+00  0.000000000E+00 -4.688665156E+02  4.688665156E+02  0.000000000E+00  0.00000E+00  9.000E+00
      25     1     1     2     0     0  1.049662268E+02 -1.551554415E+00 -3.524844500E+02  3.884463973E+02  1.250000000E+02  0.00000E+00  9.000E+00
      25     1     1     2     0     0 -1.155894904E+02  6.207317706E+00  4.365169559E+01  1.758690752E+02  1.250000000E+02  0.00000E+00  9.000E+00
      21     1     1     2   502   511  1.062326362E+01 -4.655763291E+00 -3.125090436E+01  3.333389994E+01  3.371747881E-07  0.00000E+00  9.000E+00
#rwgt            1           1   3.8752201461216412E-002           8      437252           0
</event>
<event>
      5   9999  3.79277E-02  7.79809E+01 -1.00000E+00  1.28889E-01
       2    -1     0     0   502     0  0.000000000E+00  0.000000000E+00  2.228532107E+03  2.228532107E+03  0.000000000E+00  0.00000E+00  9.000E+00
      21    -1     0     0   501   502  0.000000000E+00  0.000000000E+00 -1.928962191E+02  1.928962191E+02  0.000000000E+00  0.00000E+00  9.000E+00
      25     1     1     2     0     0  1.500246077E+02  7.766616378E+01 -2.512854748E+01  2.116503244E+02  1.250000000E+02  0.00000E+00  9.000E+00
      25     1     1     2     0     0 -7.627227304E+01 -1.029962990E+02  3.487999755E+01  1.823932879E+02  1.250000000E+02  0.00000E+00  9.000E+00
       2     1     1     2   501     0 -7.375233465E+01  2.533013520E+01  2.025884438E+03  2.027384714E+03  0.000000000E+00  0.00000E+00  9.000E+00
#rwgt            2          18   4.4271710561872013E-003           8      437511           0
</event>
<event>
      5   9999  3.79277E-02  5.39923E+01 -1.00000E+00  1.37198E-01
      21    -1     0     0   511   501  0.000000000E+00  0.000000000E+00  1.108074942E+03  1.108074942E+03  0.000000000E+00  0.00000E+00  9.000E+00
      21    -1     0     0   501   502  0.000000000E+00  0.000000000E+00 -1.452535588E+02  1.452535588E+02  0.000000000E+00  0.00000E+00  9.000E+00
      25     1     1     2     0     0 -1.224140855E+02 -7.280274953E+00 -2.180070226E+01  1.764609910E+02  1.250000000E+02  0.00000E+00  9.000E+00
      25     1     1     2     0     0  7.021961163E+01  2.109715779E+01  7.050593120E+01  1.611582150E+02  1.250000000E+02  0.00000E+00  9.000E+00
      21     1     1     2   511   502  5.219447382E+01 -1.381688284E+01  9.141161543E+02  9.157092950E+02  1.525878906E-05  0.00000E+00  9.000E+00
#rwgt            1           1   3.9268426777840384E-002           8      437620           0
</event>
<event>
      5   9999  3.79277E-02  8.90910E+01 -1.00000E+00  1.26127E-01
      21    -1     0     0   502   512  0.000000000E+00  0.000000000E+00  3.426528668E+02  3.426528668E+02  0.000000000E+00  0.00000E+00  9.000E+00
      21    -1     0     0   501   502  0.000000000E+00  0.000000000E+00 -5.035999355E+02  5.035999355E+02  0.000000000E+00  0.00000E+00  9.000E+00
      25     1     1     2     0     0  1.303355338E+02 -1.747512224E+02 -2.784006495E+01  2.528347490E+02  1.250000000E+02  0.00000E+00  9.000E+00
      25     1     1     2     0     0 -1.492498203E+02  2.618112523E+02 -2.744479844E+02  4.263418075E+02  1.250000000E+02  0.00000E+00  9.000E+00
      21     1     1     2   501   512  1.891428649E+01 -8.706002992E+01  1.413409808E+02  1.670762457E+02  1.907348633E-06  0.00000E+00  9.000E+00
#rwgt            1           1   3.9415508908436515E-002           8      437676           0
</event>
<event>
      5   9999  3.79277E-02  2.21695E+01 -1.00000E+00  1.62761E-01
      21    -1     0     0   511   501  0.000000000E+00  0.000000000E+00  6.092855975E+02  6.092855975E+02  0.000000000E+00  0.00000E+00  9.000E+00
      21    -1     0     0   501   502  0.000000000E+00  0.000000000E+00 -8.192985567E+01  8.192985567E+01  0.000000000E+00  0.00000E+00  9.000E+00
      25     1     1     2     0     0 -3.931949699E+01 -2.150084145E+00 -1.003943979E+01  1.314398572E+02  1.250000000E+02  0.00000E+00  9.000E+00
      25     1     1     2     0     0  2.579986364E+01  1.972014187E+01  3.926979345E+02  4.133898701E+02  1.250000000E+02  0.00000E+00  9.000E+00
      21     1     1     2   511   502  1.351963335E+01 -1.757005772E+01  1.446972471E+02  1.463857259E+02  2.697398305E-06  0.00000E+00  9.000E+00
#rwgt            1           1   4.7047914280771236E-002           8      437880           0
</event>
<event>
      5   9999  3.79277E-02  6.58868E+01 -1.00000E+00  1.32567E-01
      21    -1     0     0   502   512  0.000000000E+00  0.000000000E+00  1.273146770E+02  1.273146770E+02  0.000000000E+00  0.00000E+00  9.000E+00
      21    -1     0     0   501   502  0.000000000E+00  0.000000000E+00 -5.225250899E+02  5.225250899E+02  0.000000000E+00  0.00000E+00  9.000E+00
      25     1     1     2     0     0 -3.836594935E+01 -8.353067294E+01 -3.544310089E+02  3.869052331E+02  1.250000000E+02  0.00000E+00  9.000E+00
      25     1     1     2     0     0  9.846466577E+01  1.105347028E+02 -2.696762506E+01  1.956156019E+02  1.250000000E+02  0.00000E+00  9.000E+00
      21     1     1     2   501   512 -6.009871642E+01 -2.700402983E+01 -1.381177896E+01  6.731893181E+01  3.371747881E-07  0.00000E+00  9.000E+00
#rwgt            1           1   4.3129590163594578E-002           8      438015           0
</event>
<event>
      5   9999  3.79277E-02  3.05106E+01 -1.00000E+00  1.52532E-01
      21    -1     0     0   502   511  0.000000000E+00  0.000000000E+00  1.971200060E+03  1.971200060E+03  0.000000000E+00  0.00000E+00  9.000E+00
      21    -1     0     0   501   502  0.000000000E+00  0.000000000E+00 -1.087737251E+02  1.087737251E+02  0.000000000E+00  0.00000E+00  9.000E+00
      25     1     1     2     0     0 -2.403086162E+02  5.458035894E+01  1.264574235E+02  3.038811059E+02  1.250000000E+02  0.00000E+00  9.000E+00
      25     1     1     2     0     0  2.296825048E+02 -8.318076088E+01  9.322874464E+02  9.718322771E+02  1.250000000E+02  0.00000E+00  9.000E+00
      21     1     1     2   501   511  1.062611139E+01  2.860040195E+01  8.036814646E+02  8.042604017E+02  1.078959322E-05  0.00000E+00  9.000E+00
#rwgt            1           1  0.13329013131436693                8      438272           0
</event>
<event>
      5   9999  3.79277E-02  4.17013E+01 -1.00000E+00  1.43727E-01
      21    -1     0     0   502   501  0.000000000E+00  0.000000000E+00  2.142552300E+02  2.142552300E+02  0.000000000E+00  0.00000E+00  9.000E+00
      21    -1     0     0   512   502  0.000000000E+00  0.000000000E+00 -2.241897665E+02  2.241897665E+02  0.000000000E+00  0.00000E+00  9.000E+00
      25     1     1     2     0     0  8.750913368E+01  2.936474999E+01 -9.850940777E+01  1.839816307E+02  1.250000000E+02  0.00000E+00  9.000E+00
      25     1     1     2     0     0 -6.024660576E+01 -6.092034152E+01  1.270254947E+02  1.977407844E+02  1.250000000E+02  0.00000E+00  9.000E+00
      21     1     1     2   512   501 -2.726252792E+01  3.155559153E+01 -3.845062348E+01  5.672258132E+01  8.259061849E-07  0.00000E+00  9.000E+00
#rwgt            1           1   3.4242935654869133E-002           8      438419           0
</event>
<event>
      5   9999  3.79277E-02  2.58812E+01 -1.00000E+00  1.57632E-01
      21    -1     0     0   502   501  0.000000000E+00  0.000000000E+00  5.020484769E+01  5.020484769E+01  0.000000000E+00  0.00000E+00  9.000E+00
      21    -1     0     0   501   511  0.000000000E+00  0.000000000E+00 -1.654116819E+03  1.654116819E+03  0.000000000E+00  0.00000E+00  9.000E+00
      25     1     1     2     0     0 -2.165159698E+02 -1.131116259E+02 -5.678136873E+02  6.306431547E+02  1.250000000E+02  0.00000E+00  9.000E+00
      25     1     1     2     0     0  2.014541836E+02  9.206455587E+01 -9.054595538E+02  9.405007571E+02  1.250000000E+02  0.00000E+00  9.000E+00
      21     1     1     2   502   511  1.506178619E+01  2.104707001E+01 -1.306387300E+02  1.331777546E+02  3.303624740E-06  0.00000E+00  9.000E+00
#rwgt            1           1  0.13650582424401156                8      438572           0
</event>
<event>
      5   9999  3.79277E-02  3.08642E+01 -1.00000E+00  1.52188E-01
      21    -1     0     0   502   501  0.000000000E+00  0.000000000E+00  8.551833909E+01  8.551833909E+01  0.000000000E+00  0.00000E+00  9.000E+00
       2    -1     0     0   501     0  0.000000000E+00  0.000000000E+00 -3.591607787E+03  3.591607787E+03  0.000000000E+00  0.00000E+00  9.000E+00
      25     1     1     2     0     0 -4.827948093E+01 -7.006047030E+01 -1.363299060E+01  1.518230424E+02  1.250000000E+02  0.00000E+00  9.000E+00
      25     1     1     2     0     0  7.913715211E+01  6.942602772E+01 -3.921149490E+02  4.248079512E+02  1.250000000E+02  0.00000E+00  9.000E+00
       2     1     1     2   502     0 -3.085767118E+01  6.344425771E-01 -3.100341508E+03  3.100495132E+03  0.000000000E+00  0.00000E+00  9.000E+00
#rwgt            1           1   3.5243465828067568E-002           8      438765           0
</event>
<event>
      5   9999  3.79277E-02  5.68473E+01 -1.00000E+00  1.35968E-01
      21    -1     0     0   502   501  0.000000000E+00  0.000000000E+00  5.804000189E+02  5.804000189E+02  0.000000000E+00  0.00000E+00  9.000E+00
       2    -1     0     0   501     0  0.000000000E+00  0.000000000E+00 -4.262528922E+02  4.262528922E+02  0.000000000E+00  0.00000E+00  9.000E+00
      25     1     1     2     0     0  1.077691935E+02 -1.621570765E+02  3.091078196E+02  3.861110730E+02  1.250000000E+02  0.00000E+00  9.000E+00
      25     1     1     2     0     0 -5.388207554E+01  1.440520092E+02  1.878382515E+02  2.730612901E+02  1.250000000E+02  0.00000E+00  9.000E+00
       2     1     1     2   502     0 -5.388711800E+01  1.810506730E+01 -3.427989444E+02  3.474805480E+02  3.814697266E-06  0.00000E+00  9.000E+00
#rwgt            1           1   3.3493320665214536E-002           8      438945           0
</event>
<event>
      5   9999  3.79277E-02  4.95161E+01 -1.00000E+00  1.39317E-01
      21    -1     0     0   502   511  0.000000000E+00  0.000000000E+00  3.487681199E+01  3.487681199E+01  0.000000000E+00  0.00000E+00  9.000E+00
      21    -1     0     0   501   502  0.000000000E+00  0.000000000E+00 -1.851392283E+03  1.851392283E+03  0.000000000E+00  0.00000E+00  9.000E+00
      25     1     1     2     0     0  1.714633693E+02  1.861285590E+00 -1.268831918E+03  1.286453492E+03  1.250000000E+02  0.00000E+00  9.000E+00
      25     1     1     2     0     0 -1.380582498E+02 -3.841186484E+01 -3.792365434E+02  4.242415675E+02  1.250000000E+02  0.00000E+00  9.000E+00
      21     1     1     2   501   511 -3.340511949E+01  3.655057925E+01 -1.684470098E+02  1.755740356E+02  1.907348633E-06  0.00000E+00  9.000E+00
#rwgt            1           1   3.7711799243698635E-002           8      439015           0
</event>
<event>
      5   9999  3.79277E-02  4.21907E+01 -1.00000E+00  1.43418E-01
      21    -1     0     0   502   512  0.000000000E+00  0.000000000E+00  1.170987103E+02  1.170987103E+02  0.000000000E+00  0.00000E+00  9.000E+00
      21    -1     0     0   501   502  0.000000000E+00  0.000000000E+00 -8.309722421E+02  8.309722421E+02  0.000000000E+00  0.00000E+00  9.000E+00
      25     1     1     2     0     0 -1.346376727E+02  2.210710650E+02 -3.690879713E+02  4.678147595E+02  1.250000000E+02  0.00000E+00  9.000E+00
      25     1     1     2     0     0  1.715187879E+02 -2.005810398E+02 -3.052063035E+02  4.224066001E+02  1.250000000E+02  0.00000E+00  9.000E+00
      21     1     1     2   501   512 -3.688111525E+01 -2.049002526E+01 -3.957925706E+01  5.784959279E+01  8.259061849E-07  0.00000E+00  9.000E+00
#rwgt            1           1   3.9643669702927417E-002           8      439132           0
</event>
<event>
      5   9999  3.79277E-02  4.05985E+01 -1.00000E+00  1.44441E-01
      21    -1     0     0   511   501  0.000000000E+00  0.000000000E+00  3.470509999E+02  3.470509999E+02  0.000000000E+00  0.00000E+00  9.000E+00
      21    -1     0     0   501   502  0.000000000E+00  0.000000000E+00 -1.586691927E+02  1.586691927E+02  0.000000000E+00  0.00000E+00  9.000E+00
      25     1     1     2     0     0 -8.038062757E+01  1.339826438E+02  1.251816691E+02  2.360250928E+02  1.250000000E+02  0.00000E+00  9.000E+00
      25     1     1     2     0     0  1.141276592E+02 -1.114131996E+02  1.015196667E+01  2.028942731E+02  1.250000000E+02  0.00000E+00  9.000E+00
      21     1     1     2   511   502 -3.374703163E+01 -2.256944415E+01  5.304817137E+01  6.680082663E+01  0.000000000E+00  0.00000E+00  9.000E+00
#rwgt            1           1   3.4839309734719798E-002           8      439250           0
</event>
<event>
      5   9999  3.79277E-02  8.99207E+00 -1.00000E+00  2.01247E-01
      21    -1     0     0   512   501  0.000000000E+00  0.000000000E+00  2.574910024E+02  2.574910024E+02  0.000000000E+00  0.00000E+00  9.000E+00
      21    -1     0     0   501   502  0.000000000E+00  0.000000000E+00 -2.658633201E+02  2.658633201E+02  0.000000000E+00  0.00000E+00  9.000E+00
      25     1     1     2     0     0  6.853247990E+01  9.210520171E+01 -1.251138293E+02  2.108519368E+02  1.250000000E+02  0.00000E+00  9.000E+00
      25     1     1     2     0     0 -6.380866090E+01 -9.975653296E+01 -2.189711969E+01  1.735724486E+02  1.250000000E+02  0.00000E+00  9.000E+00
      21     1     1     2   512   502 -4.723818995E+00  7.651331255E+00  1.386386312E+02  1.389299370E+02  0.000000000E+00  0.00000E+00  9.000E+00
#rwgt            1           1  0.13076455981137683                8      439398           0
</event>
<event>
      5   9999  3.79277E-02  2.97832E+01 -1.00000E+00  1.53259E-01
      21    -1     0     0   502   511  0.000000000E+00  0.000000000E+00  3.959000733E+02  3.959000733E+02  0.000000000E+00  0.00000E+00  9.000E+00
      21    -1     0     0   501   502  0.000000000E+00  0.000000000E+00 -1.036559968E+02  1.036559968E+02  0.000000000E+00  0.00000E+00  9.000E+00
      25     1     1     2     0     0 -6.828410291E+01 -1.241118222E+02  2.060999032E+02  2.795865398E+02  1.250000000E+02  0.00000E+00  9.000E+00
      25     1     1     2     0     0  6.694001229E+01  9.435896718E+01  6.075578321E+01  1.808337500E+02  1.250000000E+02  0.00000E+00  9.000E+00
      21     1     1     2   501   511  1.344090622E+00  2.975285498E+01  2.538839008E+01  3.913578043E+01  4.768371582E-07  0.00000E+00  9.000E+00
#rwgt            1           1   4.6454260731976407E-002           8      439762           0
</event>
<event>
      5   9999  3.79277E-02  1.42171E+02 -1.00000E+00  1.17324E-01
      21    -1     0     0   502   501  0.000000000E+00  0.000000000E+00  1.785767225E+02  1.785767225E+02  0.000000000E+00  0.00000E+00  9.000E+00
       2    -1     0     0   501     0  0.000000000E+00  0.000000000E+00 -4.825707194E+03  4.825707194E+03  0.000000000E+00  0.00000E+00  9.000E+00
      25     1     1     2     0     0  4.343359147E+02  2.590608156E+02 -4.802943207E+02  7.085674473E+02  1.250000000E+02  0.00000E+00  9.000E+00
      25     1     1     2     0     0 -3.400016715E+02 -1.526957169E+02 -5.497939326E+02  6.758812669E+02  1.250000000E+02  0.00000E+00  9.000E+00
       2     1     1     2   502     0 -9.433424318E+01 -1.063650988E+02 -3.617042218E+03  3.619835202E+03  6.103515625E-05  0.00000E+00  9.000E+00
#rwgt            1           1  0.13524053647395071                8      440030           0
</event>
<event>
      5   9999  3.79277E-02  1.15144E+02 -1.00000E+00  1.21135E-01
      21    -1     0     0   502   501  0.000000000E+00  0.000000000E+00  5.649728586E+02  5.649728586E+02  0.000000000E+00  0.00000E+00  9.000E+00
      21    -1     0     0   501   511  0.000000000E+00  0.000000000E+00 -2.565219997E+02  2.565219997E+02  0.000000000E+00  0.00000E+00  9.000E+00
      25     1     1     2     0     0 -9.936479815E+01 -1.826916428E+02  2.348222496E+02  3.376626843E+02  1.250000000E+02  0.00000E+00  9.000E+00
      25     1     1     2     0     0  2.061621192E+02  2.257328825E+02  1.308501646E+02  3.552533170E+02  1.250000000E+02  0.00000E+00  9.000E+00
      21     1     1     2   502   511 -1.067973210E+02 -4.304123973E+01 -5.722155527E+01  1.285788571E+02  6.743495762E-07  0.00000E+00  9.000E+00
#rwgt            1           1   3.0005298674824300E-002           8      440125           0
</event>
<event>
      5   9999  3.79277E-02  4.09358E+01 -1.00000E+00  1.44220E-01
      21    -1     0     0   502   501  0.000000000E+00  0.000000000E+00  3.988232058E+01  3.988232058E+01  0.000000000E+00  0.00000E+00  9.000E+00
      21    -1     0     0   512   502  0.000000000E+00  0.000000000E+00 -1.378806368E+03  1.378806368E+03  0.000000000E+00  0.00000E+00  9.000E+00
      25     1     1     2     0     0 -1.183810336E+02  4.427165829E+01 -4.569845007E+02  4.903405783E+02  1.250000000E+02  0.00000E+00  9.000E+00
      25     1     1     2     0     0  1.566559013E+02 -5.878973165E+01 -4.692348876E+02  5.136182276E+02  1.250000000E+02  0.00000E+00  9.000E+00
      21     1     1     2   512   501 -3.827486771E+01  1.451807336E+01 -4.127046596E+02  4.147298832E+02  5.394796609E-06  0.00000E+00  9.000E+00
#rwgt            2          11   7.0385927285571939E-004           8      440282           0
</event>
<event>
      5   9999  3.79277E-02  5.07914E+01 -1.00000E+00  1.38688E-01
      21    -1     0     0   502   501  0.000000000E+00  0.000000000E+00  2.840434628E+01  2.840434628E+01  0.000000000E+00  0.00000E+00  9.000E+00
       1    -1     0     0   501     0  0.000000000E+00  0.000000000E+00 -1.239960448E+03  1.239960448E+03  0.000000000E+00  0.00000E+00  9.000E+00
      25     1     1     2     0     0 -3.963760722E+01 -5.290249371E+01 -5.926596883E+02  6.092949367E+02  1.250000000E+02  0.00000E+00  9.000E+00
      25     1     1     2     0     0  2.176381602E+01  1.004449958E+02 -3.524530813E+02  3.878286160E+02  1.250000000E+02  0.00000E+00  9.000E+00
       1     1     1     2   502     0  1.787379120E+01 -4.754250205E+01 -2.664433318E+02  2.712412413E+02  5.394796609E-06  0.00000E+00  9.000E+00
#rwgt            1           1   3.1629876496075710E-002           8      440362           0
</event>
<event>
      5   9999  3.79277E-02  1.01639E+02 -1.00000E+00  1.23511E-01
      21    -1     0     0   502   501  0.000000000E+00  0.000000000E+00  9.264060272E+02  9.264060272E+02  0.000000000E+00  0.00000E+00  9.000E+00
      21    -1     0     0   501   511  0.000000000E+00  0.000000000E+00 -7.276120021E+01  7.276120021E+01  0.000000000E+00  0.00000E+00  9.000E+00
      25     1     1     2     0     0 -1.293426988E+02 -5.863742224E+01  1.738191329E+02  2.569162743E+02  1.250000000E+02  0.00000E+00  9.000E+00
      25     1     1     2     0     0  3.062825723E+01  3.442905392E+01  5.953956516E+02  6.101183752E+02  1.250000000E+02  0.00000E+00  9.000E+00
      21     1     1     2   502   511  9.871444156E+01  2.420836832E+01  8.443004250E+01  1.321325779E+02  1.348699152E-06  0.00000E+00  9.000E+00
#rwgt            1           1   5.0956678722489518E-002           8      440483           0
</event>
<event>
      5   9999  3.79277E-02  1.97449E+01 -1.00000E+00  1.66830E-01
      21    -1     0     0   502   501  0.000000000E+00  0.000000000E+00  2.214761692E+02  2.214761692E+02  0.000000000E+00  0.00000E+00  9.000E+00
      21    -1     0     0   512   502  0.000000000E+00  0.000000000E+00 -4.468803945E+02  4.468803945E+02  0.000000000E+00  0.00000E+00  9.000E+00
      25     1     1     2     0     0  1.799593175E+00  1.988252457E+02  8.748392028E+01  2.506255238E+02  1.250000000E+02  0.00000E+00  9.000E+00
      25     1     1     2     0     0 -1.647279248E+01 -2.120372577E+02 -2.475765335E+02  3.495000594E+02  1.250000000E+02  0.00000E+00  9.000E+00
      21     1     1     2   512   501  1.467319931E+01  1.321201200E+01 -6.531161207E+01  6.823098058E+01  9.536743164E-07  0.00000E+00  9.000E+00
#rwgt            1           1   3.9082931382284927E-002           8      440596           0
</event>
<event>
      5   9999  3.79277E-02  2.89172E+02 -1.00000E+00  1.06113E-01
      21    -1     0     0   502   511  0.000000000E+00  0.000000000E+00  4.122475507E+02  4.122475507E+02  0.000000000E+00  0.00000E+00  9.000E+00
      21    -1     0     0   501   502  0.000000000E+00  0.000000000E+00 -1.023340647E+03  1.023340647E+03  0.000000000E+00  0.00000E+00  9.000E+00
      25     1     1     2     0     0  1.597389831E+02  6.543829173E+01 -2.340594227E+02  3.165557235E+02  1.250000000E+02  0.00000E+00  9.000E+00
      25     1     1     2     0     0  1.274100671E+02 -9.958154236E+01 -6.741343467E+02  7.044373118E+02  1.250000000E+02  0.00000E+00  9.000E+00
      21     1     1     2   501   511 -2.871490502E+02  3.414325063E+01  2.971006731E+02  4.145951623E+02  5.394796609E-06  0.00000E+00  9.000E+00
#rwgt            1           1   3.9409548728489077E-002           8      440875           0
</event>
<event>
      5   9999  3.79277E-02  4.80860E+01 -1.00000E+00  1.40050E-01
      21    -1     0     0   502   501  0.000000000E+00  0.000000000E+00  1.683717941E+02  1.683717941E+02  0.000000000E+00  0.00000E+00  9.000E+00
      21    -1     0     0   512   502  0.000000000E+00  0.000000000E+00 -3.283223458E+02  3.283223458E+02  0.000000000E+00  0.00000E+00  9.000E+00
      25     1     1     2     0     0  3.408545966E-02 -8.676602472E+01 -1.365494762E+02  2.044482909E+02  1.250000000E+02  0.00000E+00  9.000E+00
      25     1     1     2     0     0 -4.426439934E+01  6.789954496E+01  8.651088888E+01  1.722754166E+02  1.250000000E+02  0.00000E+00  9.000E+00
      21     1     1     2   512   501  4.423031388E+01  1.886647976E+01 -1.099119645E+02  1.199704324E+02  1.348699152E-06  0.00000E+00  9.000E+00
#rwgt            1           1   4.3894935764087213E-002           8      441049           0
</event>
<event>
      5   9999  3.79277E-02  9.64448E+01 -1.00000E+00  1.24539E-01
       1    -1     0     0   502     0  0.000000000E+00  0.000000000E+00  4.294986773E+02  4.294986773E+02  0.000000000E+00  0.00000E+00  9.000E+00
      21    -1     0     0   501   502  0.000000000E+00  0.000000000E+00 -2.103595866E+02  2.103595866E+02  0.000000000E+00  0.00000E+00  9.000E+00
      25     1     1     2     0     0  7.206188234E+01  1.527359343E+02  1.419754088E+02  2.535807509E+02  1.250000000E+02  0.00000E+00  9.000E+00
      25     1     1     2     0     0 -1.059475355E+02 -6.244001604E+01 -8.710011876E+01  1.957934283E+02  1.250000000E+02  0.00000E+00  9.000E+00
       1     1     1     2   501     0  3.388565317E+01 -9.029591825E+01  1.642638007E+02  1.904840848E+02  1.907348633E-06  0.00000E+00  9.000E+00
#rwgt            1           1   3.8670860803365799E-002           8      441238           0
</event>
<event>
      5   9999  3.79277E-02  8.04092E+01 -1.00000E+00  1.28242E-01
      21    -1     0     0   511   501  0.000000000E+00  0.000000000E+00  1.223362517E+02  1.223362517E+02  0.000000000E+00  0.00000E+00  9.000E+00
      21    -1     0     0   501   502  0.000000000E+00  0.000000000E+00 -1.876703869E+03  1.876703869E+03  0.000000000E+00  0.00000E+00  9.000E+00
      25     1     1     2     0     0  2.055740334E+01 -9.512157632E+01 -1.022183089E+03  1.034385802E+03  1.250000000E+02  0.00000E+00  9.000E+00
      25     1     1     2     0     0  5.644123023E+01  7.195161317E+01 -8.264015088E+02  8.407895699E+02  1.250000000E+02  0.00000E+00  9.000E+00
      21     1     1     2   511   502 -7.699863357E+01  2.316996315E+01  9.421697977E+01  1.238647490E+02  3.303624740E-06  0.00000E+00  9.000E+00
#rwgt            1           1  0.32043614688803962                8      441360           0
</event>
<event>
      5   9999  3.79277E-02  1.74832E+01 -1.00000E+00  1.71337E-01
      21    -1     0     0   512   501  0.000000000E+00  0.000000000E+00  3.475500196E+02  3.475500196E+02  0.000000000E+00  0.00000E+00  9.000E+00
      21    -1     0     0   501   502  0.000000000E+00  0.000000000E+00 -4.486840161E+02  4.486840161E+02  0.000000000E+00  0.00000E+00  9.000E+00
      25     1     1     2     0     0 -2.907507318E+02 -1.034321950E+02 -6.286644902E+01  3.388383057E+02  1.250000000E+02  0.00000E+00  9.000E+00
      25     1     1     2     0     0  3.073121823E+02  1.090339988E+02 -1.234807829E+02  3.704074703E+02  1.250000000E+02  0.00000E+00  9.000E+00
      21     1     1     2   512   502 -1.656145052E+01 -5.601803833E+00  8.521323537E+01  8.698825973E+01  9.536743164E-07  0.00000E+00  9.000E+00
#rwgt            1           1   3.2029265330908822E-002           8      441576           0
</event>
<event>
      5   9999 -3.79277E-02  2.99166E+02 -1.00000E+00  1.05631E-01
      21    -1     0     0   511   501  0.000000000E+00  0.000000000E+00  1.662937243E+02  1.662937243E+02  0.000000000E+00  0.00000E+00  9.000E+00
      21    -1     0     0   501   502  0.000000000E+00  0.000000000E+00 -1.385912265E+03  1.385912265E+03  0.000000000E+00  0.00000E+00  9.000E+00
      25     1     1     2     0     0 -1.002838678E+02 -9.309526050E+01 -4.372095284E+02  4.748691961E+02  1.250000000E+02  0.00000E+00  9.000E+00
      25     1     1     2     0     0  1.053744163E+02  3.922180134E+02 -5.676092160E+02  7.090443990E+02  1.250000000E+02  0.00000E+00  9.000E+00
      21     1     1     2   511   502 -5.090548492E+00 -2.991227529E+02 -2.147997960E+02  3.682923938E+02  6.607249480E-06  0.00000E+00  9.000E+00
#rwgt            1           1 -0.20445886046091197                8      441834           0
</event>
<event>
      5   9999  3.79277E-02  1.46173E+01 -1.00000E+00  1.78448E-01
      21    -1     0     0   502   501  0.000000000E+00  0.000000000E+00  3.420621750E+02  3.420621750E+02  0.000000000E+00  0.00000E+00  9.000E+00
      21    -1     0     0   501   512  0.000000000E+00  0.000000000E+00 -2.280628250E+02  2.280628250E+02  0.000000000E+00  0.00000E+00  9.000E+00
      25     1     1     2     0     0  1.168898784E+02  2.583957369E+01 -1.578500710E+02  2.342489534E+02  1.250000000E+02  0.00000E+00  9.000E+00
      25     1     1     2     0     0 -1.078962876E+02 -1.431652468E+01  2.748460912E+02  3.209547407E+02  1.250000000E+02  0.00000E+00  9.000E+00
      21     1     1     2   502   512 -8.993590825E+00 -1.152304901E+01 -2.996670143E+00  1.492130579E+01  1.576990671E-07  0.00000E+00  9.000E+00
#rwgt            1           1   3.1070980664459593E-002           8      441949           0
</event>
<event>
      5   9999  3.79277E-02  2.30690E+01 -1.00000E+00  1.61411E-01
      -3    -1     0     0     0   501  0.000000000E+00  0.000000000E+00  2.918853847E+01  2.918853847E+01  0.000000000E+00  0.00000E+00  9.000E+00
      21    -1     0     0   501   502  0.000000000E+00  0.000000000E+00 -1.208961361E+03  1.208961361E+03  0.000000000E+00  0.00000E+00  9.000E+00
      25     1     1     2     0     0 -4.180506866E+01  1.182720424E+01 -8.933543692E+02  9.031027492E+02  1.250000000E+02  0.00000E+00  9.000E+00
      25     1     1     2     0     0  1.907388139E+01 -1.576060847E+01 -2.846984552E+02  3.119141230E+02  1.250000000E+02  0.00000E+00  9.000E+00
      -3     1     1     2     0   502  2.273118727E+01  3.933404236E+00 -1.719997733E+00  2.313302695E+01  3.278255463E-07  0.00000E+00  9.000E+00
#rwgt            1           1   8.9660356101586139E-002           8      442176           0
</event>
<event>
      5   9999  3.79277E-02  5.04842E+01 -1.00000E+00  1.38837E-01
      21    -1     0     0   502   501  0.000000000E+00  0.000000000E+00  1.902102509E+02  1.902102509E+02  0.000000000E+00  0.00000E+00  9.000E+00
       2    -1     0     0   501     0  0.000000000E+00  0.000000000E+00 -1.686091537E+03  1.686091537E+03  0.000000000E+00  0.00000E+00  9.000E+00
      25     1     1     2     0     0  1.125161985E+02  2.509735700E+01  1.104109534E+02  2.027445459E+02  1.250000000E+02  0.00000E+00  9.000E+00
      25     1     1     2     0     0 -6.381232672E+01 -1.180878709E+01 -1.161432241E+02  1.825533045E+02  1.250000000E+02  0.00000E+00  9.000E+00
       2     1     1     2   502     0 -4.870387181E+01 -1.328856991E+01 -1.490149015E+03  1.491003937E+03  0.000000000E+00  0.00000E+00  9.000E+00
#rwgt            1           1   2.7001957351831640E-002           8      442549           0
</event>
<event>
      5   9999  3.79277E-02  1.62844E+02 -1.00000E+00  1.14997E-01
      21    -1     0     0   502   501  0.000000000E+00  0.000000000E+00  1.291507683E+02  1.291507683E+02  0.000000000E+00  0.00000E+00  9.000E+00
      21    -1     0     0   501   511  0.000000000E+00  0.000000000E+00 -9.403253771E+02  9.403253771E+02  0.000000000E+00  0.00000E+00  9.000E+00
      25     1     1     2     0     0  8.949431414E+01 -1.185795588E+02 -3.140473493E+02  3.692168490E+02  1.250000000E+02  0.00000E+00  9.000E+00
      25     1     1     2     0     0 -4.319410724E+01  2.747032688E+02 -2.101268571E+02  3.702781561E+02  1.250000000E+02  0.00000E+00  9.000E+00
      21     1     1     2   502   511 -4.630020690E+01 -1.561237100E+02 -2.870004024E+02  3.299811403E+02  0.000000000E+00  0.00000E+00  9.000E+00
#rwgt            2          11   2.0420351236292451E-003           8      442966           0
</event>
<event>
      5   9999  3.79277E-02  5.43228E+01 -1.00000E+00  1.37051E-01
      -1    -1     0     0     0   501  0.000000000E+00  0.000000000E+00  3.294733577E+02  3.294733577E+02  0.000000000E+00  0.00000E+00  9.000E+00
      21    -1     0     0   501   502  0.000000000E+00  0.000000000E+00 -5.193214438E+02  5.193214438E+02  0.000000000E+00  0.00000E+00  9.000E+00
      25     1     1     2     0     0  4.003245313E+01  1.365539075E+02 -2.365879472E+02  3.030650487E+02  1.250000000E+02  0.00000E+00  9.000E+00
      25     1     1     2     0     0 -2.994802388E+01 -1.899324404E+02 -1.931052924E+02  2.998097230E+02  1.250000000E+02  0.00000E+00  9.000E+00
      -1     1     1     2     0   502 -1.008442925E+01  5.337853291E+01  2.398451534E+02  2.459200299E+02  2.697398305E-06  0.00000E+00  9.000E+00
#rwgt            1           1   3.7498571753554991E-002           8      443166           0
</event>
<event>
      5   9999  4.34908E-02  1.05709E+02 -1.00000E+00  1.22753E-01
      21    -1     0     0   502   501  0.000000000E+00  0.000000000E+00  3.786598289E+01  3.786598289E+01  0.000000000E+00  0.00000E+00  9.000E+00
      21    -1     0     0   501   511  0.000000000E+00  0.000000000E+00 -2.662027762E+03  2.662027762E+03  0.000000000E+00  0.00000E+00  9.000E+00
      25     1     1     2     0     0  2.708429997E+01  1.015240688E+02 -3.210667633E+02  3.602076656E+02  1.250000000E+02  0.00000E+00  9.000E+00
      25     1     1     2     0     0  5.993860823E+01 -1.615358961E+02 -6.661951103E+02  6.993764419E+02  1.250000000E+02  0.00000E+00  9.000E+00
      21     1     1     2   502   511 -8.702290820E+01  6.001182733E+01 -1.636899906E+03  1.640309638E+03  2.157918644E-05  0.00000E+00  9.000E+00
#rwgt            1           1  0.34284557822435574                8      443356           0
</event>
<event>
      5   9999  3.79277E-02  8.73059E+01 -1.00000E+00  1.26539E-01
      21    -1     0     0   512   501  0.000000000E+00  0.000000000E+00  1.053474538E+03  1.053474538E+03  0.000000000E+00  0.00000E+00  9.000E+00
      21    -1     0     0   501   502  0.000000000E+00  0.000000000E+00 -2.709212589E+02  2.709212589E+02  0.000000000E+00  0.00000E+00  9.000E+00
      25     1     1     2     0     0 -1.067032602E+02 -9.483731481E+00 -1.802519652E+02  2.441132890E+02  1.250000000E+02  0.00000E+00  9.000E+00
      25     1     1     2     0     0  3.179439978E+01  5.432762390E+01  2.966162413E+01  1.430635751E+02  1.250000000E+02  0.00000E+00  9.000E+00
      21     1     1     2   512   502  7.490886043E+01 -4.484389242E+01  9.331436198E+02  9.372189324E+02  1.525878906E-05  0.00000E+00  9.000E+00
#rwgt            2          11   3.7538826359861288E-003           8      443400           0
</event>
<event>
      5   9999  3.79277E-02  1.03042E+02 -1.00000E+00  1.23245E-01
      21    -1     0     0   511   501  0.000000000E+00  0.000000000E+00  4.621284752E+02  4.621284752E+02  0.000000000E+00  0.00000E+00  9.000E+00
      21    -1     0     0   501   502  0.000000000E+00  0.000000000E+00 -5.207580963E+02  5.207580963E+02  0.000000000E+00  0.00000E+00  9.000E+00
      25     1     1     2     0     0 -2.997757580E+02  6.639170953E+01  7.730725404E+00  3.315993491E+02  1.250000000E+02  0.00000E+00  9.000E+00
      25     1     1     2     0     0  1.975077163E+02 -7.899366693E+01 -3.044405882E+02  3.918652436E+02  1.250000000E+02  0.00000E+00  9.000E+00
      21     1     1     2   511   502  1.022680417E+02  1.260195740E+01  2.380802416E+02  2.594219789E+02  0.000000000E+00  0.00000E+00  9.000E+00
#rwgt            1           1  0.28622335624389100                8      443420           0
</event>
<event>
      5   9999  3.79277E-02  1.62479E+02 -1.00000E+00  1.15035E-01
      21    -1     0     0   512   501  0.000000000E+00  0.000000000E+00  3.195553241E+02  3.195553241E+02  0.000000000E+00  0.00000E+00  9.000E+00
      21    -1     0     0   501   502  0.000000000E+00  0.000000000E+00 -3.010246064E+02  3.010246064E+02  0.000000000E+00  0.00000E+00  9.000E+00
      25     1     1     2     0     0 -1.198364909E+02 -4.073347360E+00 -1.848045935E+02  2.532885992E+02  1.250000000E+02  0.00000E+00  9.000E+00
      25     1     1     2     0     0 -2.982469515E+01 -5.918039280E+01  1.151844448E+02  1.824398193E+02  1.250000000E+02  0.00000E+00  9.000E+00
      21     1     1     2   512   502  1.496611860E+02  6.325374016E+01  8.815086638E+01  1.848515120E+02  2.336015456E-06  0.00000E+00  9.000E+00
#rwgt            1           1   3.2454604554006186E-002           8      443534           0
</event>
<event>
      5   9999  3.79277E-02  2.65380E+02 -1.00000E+00  1.07352E-01
       2    -1     0     0   502     0  0.000000000E+00  0.000000000E+00  2.958149059E+03  2.958149059E+03  0.000000000E+00  0.00000E+00  9.000E+00
      21    -1     0     0   501   502  0.000000000E+00  0.000000000E+00 -2.551756137E+02  2.551756137E+02  0.000000000E+00  0.00000E+00  9.000E+00
      25     1     1     2     0     0  9.709983542E+01 -8.723628968E+01 -7.192134457E+01  1.945153672E+02  1.250000000E+02  0.00000E+00  9.000E+00
      25     1     1     2     0     0 -1.725595367E+02 -1.671891646E+02  4.321066707E+01  2.742647849E+02  1.250000000E+02  0.00000E+00  9.000E+00
       2     1     1     2   501     0  7.545970131E+01  2.544254543E+02  2.731684123E+03  2.744544520E+03  3.051757812E-05  0.00000E+00  9.000E+00
#rwgt            1           1   4.5115594348245212E-002           8      443629           0
</event>
<event>
      5   9999 -3.79277E-02  1.53368E+01 -1.00000E+00  1.76480E-01
      21    -1     0     0   511   501  0.000000000E+00  0.000000000E+00  1.400155860E+02  1.400155860E+02  0.000000000E+00  0.00000E+00  9.000E+00
      21    -1     0     0   501   502  0.000000000E+00  0.000000000E+00 -2.323842399E+02  2.323842399E+02  0.000000000E+00  0.00000E+00  9.000E+00
      25     1     1     2     0     0  1.086945180E+02 -1.304823255E+01 -7.923685843E+01  1.840875725E+02  1.250000000E+02  0.00000E+00  9.000E+00
      25     1     1     2     0     0 -1.173272369E+02  3.716797234E-01 -1.759797135E+01  1.723383511E+02  1.250000000E+02  0.00000E+00  9.000E+00
      21     1     1     2   511   502  8.632718934E+00  1.267655283E+01  4.466175828E+00  1.597390229E+01  3.153981341E-07  0.00000E+00  9.000E+00
#rwgt            1           1  -2.7458277761004696E-002           8      443679           0
</event>
<event>
      5   9999  3.79277E-02  4.02624E+01 -1.00000E+00  1.44664E-01
      21    -1     0     0   502   501  0.000000000E+00  0.000000000E+00  6.024182791E+02  6.024182791E+02  0.000000000E+00  0.00000E+00  9.000E+00
      21    -1     0     0   512   502  0.000000000E+00  0.000000000E+00 -1.526635556E+02  1.526635556E+02  0.000000000E+00  0.00000E+00  9.000E+00
      25     1     1     2     0     0  9.303834517E+01 -1.074173349E+02  4.590108219E+02  4.964982901E+02  1.250000000E+02  0.00000E+00  9.000E+00
      25     1     1     2     0     0 -5.619489021E+01  9.118104021E+01  6.268456002E+01  1.761425611E+02  1.250000000E+02  0.00000E+00  9.000E+00
      21     1     1     2   512   501 -3.684345496E+01  1.623629470E+01 -7.194065838E+01  8.244098354E+01  1.348699152E-06  0.00000E+00  9.000E+00
#rwgt            1           1   4.4612804747097633E-002           8      443927           0
</event>
<event>
      5   9999  3.79277E-02  9.34073E+01 -1.00000E+00  1.25175E-01
      21    -1     0     0   502   501  0.000000000E+00  0.000000000E+00  1.485333148E+02  1.485333148E+02  0.000000000E+00  0.00000E+00  9.000E+00
      21    -1     0     0   501   511  0.000000000E+00  0.000000000E+00 -1.000139016E+03  1.000139016E+03  0.000000000E+00  0.00000E+00  9.000E+00
      25     1     1     2     0     0  1.434404904E+01 -2.691508374E+02 -3.579370874E+02  4.651794101E+02  1.250000000E+02  0.00000E+00  9.000E+00
      25     1     1     2     0     0 -9.450361111E+01  2.211990595E+02 -1.167163577E+02  2.951400763E+02  1.250000000E+02  0.00000E+00  9.000E+00
      21     1     1     2   502   511  8.015956207E+01  4.795177789E+01 -3.769522556E+02  3.883528440E+02  5.394796609E-06  0.00000E+00  9.000E+00
#rwgt            1           1   6.6003669240728868E-002           8      444000           0
</event>
<event>
      5   9999  3.79277E-02  5.00802E+01 -1.00000E+00  1.39036E-01
      21    -1     0     0   512   501  0.000000000E+00  0.000000000E+00  3.103982090E+02  3.103982090E+02  0.000000000E+00  0.00000E+00  9.000E+00
      21    -1     0     0   501   502  0.000000000E+00  0.000000000E+00 -5.904825848E+02  5.904825848E+02  0.000000000E+00  0.00000E+00  9.000E+00
      25     1     1     2     0     0  1.885826423E+02  2.367631060E+01 -1.702782507E+02  2.841542949E+02  1.250000000E+02  0.00000E+00  9.000E+00
      25     1     1     2     0     0 -1.464961141E+02 -5.081941331E+01 -3.329811567E+02  3.880015141E+02  1.250000000E+02  0.00000E+00  9.000E+00
      21     1     1     2   512   502 -4.208652823E+01  2.714310271E+01  2.231750317E+02  2.287249848E+02  3.814697266E-06  0.00000E+00  9.000E+00
#rwgt            1           1   1.2252836096866896E-002           8      444133           0
</event>
<event>
      5   9999  3.79277E-02  1.47589E+02 -1.00000E+00  1.16673E-01
       1    -1     0     0   502     0  0.000000000E+00  0.000000000E+00  2.951048194E+02  2.951048194E+02  0.000000000E+00  0.00000E+00  9.000E+00
      21    -1     0     0   501   502  0.000000000E+00  0.000000000E+00 -3.832057794E+02  3.832057794E+02  0.000000000E+00  0.00000E+00  9.000E+00
      25     1     1     2     0     0  9.556004938E+01 -1.491706999E+02 -2.335869083E+02  3.187027839E+02  1.250000000E+02  0.00000E+00  9.000E+00
      25     1     1     2     0     0 -1.012514379E+02  1.691636286E+00  1.320261228E+01  1.614125902E+02  1.250000000E+02  0.00000E+00  9.000E+00
       1     1     1     2   501     0  5.691388552E+00  1.474790636E+02  1.322833360E+02  1.981952247E+02  2.697398305E-06  0.00000E+00  9.000E+00
#rwgt            1           1   3.9919523714559528E-002           8      444286           0
</event>
<event>
      5   9999  3.79277E-02  3.34394E+01 -1.00000E+00  1.49836E-01
      21    -1     0     0   502   501  0.000000000E+00  0.000000000E+00  5.974477541E+02  5.974477541E+02  0.000000000E+00  0.00000E+00  9.000E+00
      21    -1     0     0   501   511  0.000000000E+00  0.000000000E+00 -1.715910820E+02  1.715910820E+02  0.000000000E+00  0.00000E+00  9.000E+00
      25     1     1     2     0     0 -6.603980138E+01  3.785998570E+01 -8.155062714E+01  1.675414536E+02  1.250000000E+02  0.00000E+00  9.000E+00
      25     1     1     2     0     0  9.825966766E+01 -4.680843671E+01  5.337731411E+02  5.589139095E+02  1.250000000E+02  0.00000E+00  9.000E+00
      21     1     1     2   502   511 -3.221986628E+01  8.948451009E+00 -2.636584188E+01  4.258347304E+01  6.743495762E-07  0.00000E+00  9.000E+00
#rwgt            1           1   4.5898006113056819E-002           8      444373           0
</event>
<event>
      5   9999  3.79277E-02  2.60663E+01 -1.00000E+00  1.57404E-01
      21    -1     0     0   502   501  0.000000000E+00  0.000000000E+00  6.845029122E+02  6.845029122E+02  0.000000000E+00  0.00000E+00  9.000E+00
      21    -1     0     0   512   502  0.000000000E+00  0.000000000E+00 -1.013662632E+02  1.013662632E+02  0.000000000E+00  0.00000E+00  9.000E+00
      25     1     1     2     0     0  1.787954835E+02  2.257256499E+01  1.048363624E+02  2.430905356E+02  1.250000000E+02  0.00000E+00  9.000E+00
      25     1     1     2     0     0 -1.819632756E+02 -4.844566063E+01  4.539749925E+02  5.071251419E+02  1.250000000E+02  0.00000E+00  9.000E+00
      21     1     1     2   512   501  3.167792181E+00  2.587309564E+01  2.432529399E+01  3.565349791E+01  3.371747881E-07  0.00000E+00  9.000E+00
#rwgt            1           1   3.4525572673423592E-002           8      444576           0
</event>
<event>
      5   9999  3.79277E-02  3.49040E+01 -1.00000E+00  1.48609E-01
      21    -1     0     0   502   511  0.000000000E+00  0.000000000E+00  1.520704302E+03  1.520704302E+03  0.000000000E+00  0.00000E+00  9.000E+00
      21    -1     0     0   501   502  0.000000000E+00  0.000000000E+00 -1.104232761E+02  1.104232761E+02  0.000000000E+00  0.00000E+00  9.000E+00
      25     1     1     2     0     0 -4.258305397E+01 -8.335324098E+01  2.359254878E+02  2.829256352E+02  1.250000000E+02  0.00000E+00  9.000E+00
      25     1     1     2     0     0  6.180972360E+01  5.422203452E+01 -2.209672907E+01  1.512406572E+02  1.250000000E+02  0.00000E+00  9.000E+00
      21     1     1     2   501   511 -1.922666964E+01  2.913120646E+01  1.196452267E+03  1.196961285E+03  2.157918644E-05  0.00000E+00  9.000E+00
#rwgt            1           1   4.4460091326159530E-002           8      444715           0
</event>
<event>
      5   9999  3.79277E-02  6.62890E+01 -1.00000E+00  1.32430E-01
      21    -1     0     0   512   501  0.000000000E+00  0.000000000E+00  1.513994136E+02  1.513994136E+02  0.000000000E+00  0.00000E+00  9.000E+00
      21    -1     0     0   501   502  0.000000000E+00  0.000000000E+00 -3.646648096E+02  3.646648096E+02  0.000000000E+00  0.00000E+00  9.000E+00
      25     1     1     2     0     0 -1.633513365E+02  1.782117137E+01 -2.012572183E+02  2.883239865E+02  1.250000000E+02  0.00000E+00  9.000E+00
      25     1     1     2     0     0  9.761791654E+01 -2.638531470E+01 -2.720116291E+00  1.608037359E+02  1.250000000E+02  0.00000E+00  9.000E+00
      21     1     1     2   512   502  6.573341996E+01  8.564143326E+00 -9.288061401E+00  6.693650077E+01  1.400392070E-06  0.00000E+00  9.000E+00
#rwgt            1           1   3.9701123498428054E-002           8      444831           0
</event>
<event>
      5   9999  3.79277E-02  4.37744E+01 -1.00000E+00  1.42453E-01
      21    -1     0     0   502   501  0.000000000E+00  0.000000000E+00  1.002229230E+03  1.002229230E+03  0.000000000E+00  0.00000E+00  9.000E+00
      21    -1     0     0   501   511  0.000000000E+00  0.000000000E+00 -1.939209162E+02  1.939209162E+02  0.000000000E+00  0.00000E+00  9.000E+00
      25     1     1     2     0     0 -1.481151040E+02  5.448673241E+00  2.144895317E+02  2.891341061E+02  1.250000000E+02  0.00000E+00  9.000E+00
      25     1     1     2     0     0  1.678595239E+02  3.361993259E+01  7.319965282E+02  7.620702310E+02  1.250000000E+02  0.00000E+00  9.000E+00
      21     1     1     2   502   511 -1.974441989E+01 -3.906860584E+01 -1.381777461E+02  1.449458092E+02  1.907348633E-06  0.00000E+00  9.000E+00
#rwgt            1           1   5.1791229222594555E-002           8      444939           0
</event>
<event>
      5   9999  3.79277E-02  3.13117E+01 -1.00000E+00  1.51760E-01
      21    -1     0     0   512   501  0.000000000E+00  0.000000000E+00  1.410564478E+02  1.410564478E+02  0.000000000E+00  0.00000E+00  9.000E+00
      21    -1     0     0   501   502  0.000000000E+00  0.000000000E+00 -4.553988444E+02  4.553988444E+02  0.000000000E+00  0.00000E+00  9.000E+00
      25     1     1     2     0     0 -3.817799283E+01 -1.753959022E+02 -1.264272998E+02  2.526462819E+02  1.250000000E+02  0.00000E+00  9.000E+00
      25     1     1     2     0     0  7.831534761E+00  1.676813961E+02 -2.167064388E+02  3.012724085E+02  1.250000000E+02  0.00000E+00  9.000E+00
      21     1     1     2   512   502  3.034645807E+01  7.714506124E+00  2.879134197E+01  4.253660182E+01  6.743495762E-07  0.00000E+00  9.000E+00
#rwgt            1           1   4.1703779841237056E-002           8      445096           0
</event>
<event>
      5   9999  3.79277E-02  2.31125E+01 -1.00000E+00  1.61348E-01
      21    -1     0     0   502   501  0.000000000E+00  0.000000000E+00  2.049323236E+02  2.049323236E+02  0.000000000E+00  0.00000E+00  9.000E+00
      21    -1     0     0   511   502  0.000000000E+00  0.000000000E+00 -1.157908727E+03  1.157908727E+03  0.000000000E+00  0.00000E+00  9.000E+00
      25     1     1     2     0     0  4.775523351E+01 -1.559723984E+02  1.264280762E+02  2.412820131E+02  1.250000000E+02  0.00000E+00  9.000E+00
      25     1     1     2     0     0 -5.692830997E+01  1.347581725E+02 -4.225670522E+02  4.643150990E+02  1.250000000E+02  0.00000E+00  9.000E+00
      21     1     1     2   511   501  9.173076459E+00  2.121422592E+01 -6.568374277E+02  6.572439389E+02  0.000000000E+00  0.00000E+00  9.000E+00
#rwgt            1           1   4.8309497835224653E-002           8      445227           0
</event>
<event>
      5   9999  3.79277E-02  4.06550E+01 -1.00000E+00  1.44404E-01
      21    -1     0     0   502   501  0.000000000E+00  0.000000000E+00  1.077085558E+02  1.077085558E+02  0.000000000E+00  0.00000E+00  9.000E+00
      21    -1     0     0   512   502  0.000000000E+00  0.000000000E+00 -4.583012722E+02  4.583012722E+02  0.000000000E+00  0.00000E+00  9.000E+00
      25     1     1     2     0     0 -4.676709032E+01  1.114763784E+02 -1.096895466E+02  2.055989794E+02  1.250000000E+02  0.00000E+00  9.000E+00
      25     1     1     2     0     0  8.213411155E+00 -1.243776136E+02 -7.885379869E+01  1.933395264E+02  1.250000000E+02  0.00000E+00  9.000E+00
      21     1     1     2   512   501  3.855367916E+01  1.290123520E+01 -1.620493711E+02  1.670713223E+02  2.697398305E-06  0.00000E+00  9.000E+00
#rwgt            1           1   4.4999896348751553E-002           8      445423           0
</event>
<event>
      5   9999  3.79277E-02  1.20437E+01 -1.00000E+00  1.86862E-01
      21    -1     0     0   502   511  0.000000000E+00  0.000000000E+00  9.118618029E+02  9.118618029E+02  0.000000000E+00  0.00000E+00  9.000E+00
      21    -1     0     0   501   502  0.000000000E+00  0.000000000E+00 -1.864602514E+02  1.864602514E+02  0.000000000E+00  0.00000E+00  9.000E+00
      25     1     1     2     0     0  2.070392091E+02  1.591385740E+02  1.100487281E+01  2.897178405E+02  1.250000000E+02  0.00000E+00  9.000E+00
      25     1     1     2     0     0 -1.955905744E+02 -1.628774056E+02  3.807606416E+02  4.747508697E+02  1.250000000E+02  0.00000E+00  9.000E+00
      21     1     1     2   501   511 -1.144863466E+01  3.738831609E+00  3.336360372E+02  3.338533441E+02  0.000000000E+00  0.00000E+00  9.000E+00
#rwgt            1           1   3.9738003021244174E-002           8      445479           0
</event>
<event>
      5   9999  3.79277E-02  2.78250E+01 -1.00000E+00  1.55345E-01
      21    -1     0     0   502   501  0.000000000E+00  0.000000000E+00  1.337594637E+02  1.337594637E+02  0.000000000E+00  0.00000E+00  9.000E+00
      21    -1     0     0   501   512  0.000000000E+00  0.000000000E+00 -5.278172394E+02  5.278172394E+02  0.000000000E+00  0.00000E+00  9.000E+00
      25     1     1     2     0     0  1.449148370E+01  1.304951834E+02  4.012072716E+01  1.856708613E+02  1.250000000E+02  0.00000E+00  9.000E+00
      25     1     1     2     0     0  1.071800983E+00 -1.074297278E+02 -3.424811475E+02  3.800797700E+02  1.250000000E+02  0.00000E+00  9.000E+00
      21     1     1     2   502   512 -1.556328468E+01 -2.306545555E+01 -9.169735530E+01  9.582607182E+01  0.000000000E+00  0.00000E+00  9.000E+00
#rwgt            1           1   3.0660377390908402E-002           8      445845           0
</event>
<event>
      5   9999  3.79277E-02  1.01934E+02 -1.00000E+00  1.23455E-01
      21    -1     0     0   502   511  0.000000000E+00  0.000000000E+00  7.464207611E+02  7.464207611E+02  0.000000000E+00  0.00000E+00  9.000E+00
      21    -1     0     0   501   502  0.000000000E+00  0.000000000E+00 -7.396837765E+02  7.396837765E+02  0.000000000E+00  0.00000E+00  9.000E+00
      25     1     1     2     0     0  1.861638180E+02 -1.732208451E+02 -1.302394932E+02  3.118489280E+02  1.250000000E+02  0.00000E+00  9.000E+00
      25     1     1     2     0     0 -1.077739964E+02  2.383795093E+02 -4.735593546E+02  5.552688422E+02  1.250000000E+02  0.00000E+00  9.000E+00
      21     1     1     2   501   511 -7.838982158E+01 -6.515866419E+01  6.105358324E+02  6.189867675E+02  0.000000000E+00  0.00000E+00  9.000E+00
#rwgt            1           1   3.3951071835692112E-002           8      446146           0
</event>
<event>
      5   9999  3.79277E-02  2.91198E+01 -1.00000E+00  1.53944E-01
      21    -1     0     0   512   501  0.000000000E+00  0.000000000E+00  5.127894285E+02  5.127894285E+02  0.000000000E+00  0.00000E+00  9.000E+00
      21    -1     0     0   501   502  0.000000000E+00  0.000000000E+00 -7.620661173E+01  7.620661173E+01  0.000000000E+00  0.00000E+00  9.000E+00
      25     1     1     2     0     0  6.580373911E+01  4.559889018E+01  4.832780570E+01  1.561088328E+02  1.250000000E+02  0.00000E+00  9.000E+00
      25     1     1     2     0     0 -6.735198551E+01 -1.652029555E+01  2.215901874E+02  2.636975944E+02  1.250000000E+02  0.00000E+00  9.000E+00
      21     1     1     2   512   502  1.548246404E+00 -2.907859462E+01  1.666648237E+02  1.691896131E+02  2.697398305E-06  0.00000E+00  9.000E+00
#rwgt            1           1   4.0013032229875026E-002           8      446242           0
</event>
<event>
      5   9999  3.79277E-02  2.69847E+01 -1.00000E+00  1.56305E-01
      21    -1     0     0   511   501  0.000000000E+00  0.000000000E+00  1.305101728E+03  1.305101728E+03  0.000000000E+00  0.00000E+00  9.000E+00
      21    -1     0     0   501   502  0.000000000E+00  0.000000000E+00 -5.386985630E+01  5.386985630E+01  0.000000000E+00  0.00000E+00  9.000E+00
      25     1     1     2     0     0  1.794048133E+02 -1.279889556E+01  8.174657381E+02  8.463008518E+02  1.250000000E+02  0.00000E+00  9.000E+00
      25     1     1     2     0     0 -1.971171080E+02 -7.559178477E+00  3.224762104E+02  3.981560018E+02  1.250000000E+02  0.00000E+00  9.000E+00
      21     1     1     2   511   502  1.771229468E+01  2.035807403E+01  1.112899236E+02  1.145147312E+02  1.348699152E-06  0.00000E+00  9.000E+00
#rwgt            1           1   3.3812763909143742E-002           8      446391           0
</event>
<event>
      5   9999  3.79277E-02  3.10437E+01 -1.00000E+00  1.52015E-01
      21    -1     0     0   502   501  0.000000000E+00  0.000000000E+00  1.522237204E+02  1.522237204E+02  0.000000000E+00  0.00000E+00  9.000E+00
       2    -1     0     0   501     0  0.000000000E+00  0.000000000E+00 -1.229728511E+03  1.229728511E+03  0.000000000E+00  0.00000E+00  9.000E+00
      25     1     1     2     0     0  2.042328514E+02  1.032606822E+02 -6.896175755E+01  2.697305138E+02  1.250000000E+02  0.00000E+00  9.000E+00
      25     1     1     2     0     0 -1.934233181E+02 -7.415975439E+01 -2.324723432E+02  3.355303854E+02  1.250000000E+02  0.00000E+00  9.000E+00
       2     1     1     2   502     0 -1.080953323E+01 -2.910092785E+01 -7.760706894E+02  7.766913319E+02  1.525878906E-05  0.00000E+00  9.000E+00
#rwgt            1           1   4.4574263641218102E-002           8      446525           0
</event>
<event>
      5   9999  3.79277E-02  5.76240E+01 -1.00000E+00  1.35648E-01
      -1    -1     0     0     0   501  0.000000000E+00  0.000000000E+00  1.496954730E+03  1.496954730E+03  0.000000000E+00  0.00000E+00  9.000E+00
      21    -1     0     0   501   502  0.000000000E+00  0.000000000E+00 -5.187398885E+02  5.187398885E+02  0.000000000E+00  0.00000E+00  9.000E+00
      25     1     1     2     0     0  1.262740885E+02  4.035445965E+01 -8.662447433E+01  2.017484260E+02  1.250000000E+02  0.00000E+00  9.000E+00
      25     1     1     2     0     0 -7.194356606E+01 -5.955661742E+01 -3.576935055E+02  3.902467312E+02  1.250000000E+02  0.00000E+00  9.000E+00
      -1     1     1     2     0   502 -5.433052247E+01  1.920215776E+01  1.422532821E+03  1.423699461E+03  2.157918644E-05  0.00000E+00  9.000E+00
#rwgt            1           1   4.4457679245513734E-002           8      446750           0
</event>
<event>
      5   9999  3.79277E-02  2.97663E+02 -1.00000E+00  1.05702E-01
      21    -1     0     0   502   511  0.000000000E+00  0.000000000E+00  1.063271295E+03  1.063271295E+03  0.000000000E+00  0.00000E+00  9.000E+00
      21    -1     0     0   501   502  0.000000000E+00  0.000000000E+00 -5.033796199E+02  5.033796199E+02  0.000000000E+00  0.00000E+00  9.000E+00
      25     1     1     2     0     0 -2.715869529E+02  2.468598963E+02 -2.537429943E+02  4.633678760E+02  1.250000000E+02  0.00000E+00  9.000E+00
      25     1     1     2     0     0  3.223086604E+02  4.644935946E+01  1.573597711E+02  3.826584811E+02  1.250000000E+02  0.00000E+00  9.000E+00
      21     1     1     2   501   511 -5.072170757E+01 -2.933092558E+02  6.562748978E+02  7.206245573E+02  1.078959322E-05  0.00000E+00  9.000E+00
#rwgt            2          11   1.6870233093459965E-003           8      447185           0
</event>
<event>
      5   9999  3.79277E-02  2.08839E+01 -1.00000E+00  1.64834E-01
      21    -1     0     0   502   501  0.000000000E+00  0.000000000E+00  2.111399836E+03  2.111399836E+03  0.000000000E+00  0.00000E+00  9.000E+00
      21    -1     0     0   501   512  0.000000000E+00  0.000000000E+00 -9.947572943E+02  9.947572943E+02  0.000000000E+00  0.00000E+00  9.000E+00
      25     1     1     2     0     0  1.340131730E+02 -1.342140894E+01  6.161945120E+01  1.938082081E+02  1.250000000E+02  0.00000E+00  9.000E+00
      25     1     1     2     0     0 -1.165552038E+02  1.960353363E+00  1.979886133E+03  1.987250125E+03  1.250000000E+02  0.00000E+00  9.000E+00
      21     1     1     2   502   512 -1.745796920E+01  1.146105558E+01 -9.248630429E+02  9.250987972E+02  1.525878906E-05  0.00000E+00  9.000E+00
#rwgt            1           1   2.2939610358943395E-002           8      447265           0
</event>
<event>
      5   9999  3.79277E-02  5.29137E+01 -1.00000E+00  1.37686E-01
      21    -1     0     0   502   501  0.000000000E+00  0.000000000E+00  1.004073931E+02  1.004073931E+02  0.000000000E+00  0.00000E+00  9.000E+00
      21    -1     0     0   501   511  0.000000000E+00  0.000000000E+00 -1.818334710E+03  1.818334710E+03  0.000000000E+00  0.00000E+00  9.000E+00
      25     1     1     2     0     0 -1.431210460E+02 -5.012724962E+01 -3.770436556E+01  2.001074565E+02  1.250000000E+02  0.00000E+00  9.000E+00
      25     1     1     2     0     0  1.924180218E+02  3.090058327E+01 -7.063835562E+02  7.433587759E+02  1.250000000E+02  0.00000E+00  9.000E+00
      21     1     1     2   502   511 -4.929697586E+01  1.922666635E+01 -9.738393956E+02  9.752758712E+02  1.525878906E-05  0.00000E+00  9.000E+00
#rwgt            1           1   4.9141094401543850E-002           8      447567           0
</event>
<event>
      5   9999  3.79277E-02  4.97185E+01 -1.00000E+00  1.39216E-01
      21    -1     0     0   502   501  0.000000000E+00  0.000000000E+00  1.236288394E+02  1.236288394E+02  0.000000000E+00  0.00000E+00  9.000E+00
      21    -1     0     0   501   512  0.000000000E+00  0.000000000E+00 -4.594787449E+02  4.594787449E+02  0.000000000E+00  0.00000E+00  9.000E+00
      25     1     1     2     0     0  4.820669219E+01 -1.384635206E+02 -1.454931826E+02  2.414317665E+02  1.250000000E+02  0.00000E+00  9.000E+00
      25     1     1     2     0     0 -7.245466332E+01  1.818681522E+02 -1.415539138E+02  2.720077453E+02  1.250000000E+02  0.00000E+00  9.000E+00
      21     1     1     2   502   512  2.424797112E+01 -4.340463158E+01 -4.880280906E+01  6.966807245E+01  6.743495762E-07  0.00000E+00  9.000E+00
#rwgt            1           1   3.5501315843349028E-002           8      447656           0
</event>
<event>
      5   9999  3.79277E-02  9.41862E+01 -1.00000E+00  1.25009E-01
       1    -1     0     0   502     0  0.000000000E+00  0.000000000E+00  2.799206795E+03  2.799206795E+03  0.000000000E+00  0.00000E+00  9.000E+00
      21    -1     0     0   501   502  0.000000000E+00  0.000000000E+00 -8.017387637E+01  8.017387637E+01  0.000000000E+00  0.00000E+00  9.000E+00
      25     1     1     2     0     0  1.293466018E+02  6.494634950E+01  1.566518664E+02  2.472112031E+02  1.250000000E+02  0.00000E+00  9.000E+00
      25     1     1     2     0     0 -1.420853972E+02  2.837439453E+01  2.357763295E+02  3.036590916E+02  1.250000000E+02  0.00000E+00  9.000E+00
       1     1     1     2   501     0  1.273879545E+01 -9.332074403E+01  2.326604723E+03  2.328510377E+03  5.285799584E-05  0.00000E+00  9.000E+00
#rwgt            1           1   4.1794288367593614E-002           8      447763           0
</event>
<event>
      5   9999  3.79277E-02  8.47627E+00 -1.00000E+00  2.04440E-01
      21    -1     0     0   502   511  0.000000000E+00  0.000000000E+00  2.742163947E+02  2.742163947E+02  0.000000000E+00  0.00000E+00  9.000E+00
      21    -1     0     0   501   502  0.000000000E+00  0.000000000E+00 -1.314324497E+02  1.314324497E+02  0.000000000E+00  0.00000E+00  9.000E+00
      25     1     1     2     0     0 -1.311811244E+02  2.249777271E+00  7.606383363E+01  1.965305465E+02  1.250000000E+02  0.00000E+00  9.000E+00
      25     1     1     2     0     0  1.384659294E+02 -6.583215754E+00  5.488286889E+01  1.945591983E+02  1.250000000E+02  0.00000E+00  9.000E+00
      21     1     1     2   501   511 -7.284804971E+00  4.333438483E+00  1.183724246E+01  1.455909962E+01  0.000000000E+00  0.00000E+00  9.000E+00
#rwgt            1           1   3.8782352600466564E-002           8      447828           0
</event>
<event>
      5   9999  3.79277E-02  4.19387E+01 -1.00000E+00  1.43577E-01
      21    -1     0     0   502   501  0.000000000E+00  0.000000000E+00  4.807959446E+02  4.807959446E+02  0.000000000E+00  0.00000E+00  9.000E+00
      21    -1     0     0   501   512  0.000000000E+00  0.000000000E+00 -3.344719782E+02  3.344719782E+02  0.000000000E+00  0.00000E+00  9.000E+00
      25     1     1     2     0     0  2.850084791E+02  8.760638204E+01  2.718145983E+02  4.223894970E+02  1.250000000E+02  0.00000E+00  9.000E+00
      25     1     1     2     0     0 -2.437357713E+02 -9.505073439E+01 -3.361670810E+01  2.918849969E+02  1.250000000E+02  0.00000E+00  9.000E+00
      21     1     1     2   502   512 -4.127270779E+01  7.444352341E+00 -9.187392384E+01  1.009934289E+02  0.000000000E+00  0.00000E+00  9.000E+00
#rwgt            1           1  0.16234473609295744                8      448095           0
</event>
<event>
      5   9999  3.79277E-02  1.79777E+01 -1.00000E+00  1.70282E-01
      21    -1     0     0   511   501  0.000000000E+00  0.000000000E+00  6.744940934E+02  6.744940934E+02  0.000000000E+00  0.00000E+00  9.000E+00
      21    -1     0     0   501   502  0.000000000E+00  0.000000000E+00 -2.038494108E+02  2.038494108E+02  0.000000000E+00  0.00000E+00  9.000E+00
      25     1     1     2     0     0  1.121965764E+02  2.598798014E+02  3.121879042E+01  3.110067456E+02  1.250000000E+02  0.00000E+00  9.000E+00
      25     1     1     2     0     0 -1.267334457E+02 -2.704569710E+02  3.527545067E+02  4.788205106E+02  1.250000000E+02  0.00000E+00  9.000E+00
      21     1     1     2   511   502  1.453686929E+01  1.057716968E+01  8.667138549E+01  8.851624794E+01  0.000000000E+00  0.00000E+00  9.000E+00
#rwgt            1           1  0.12752792086955075                8      448266           0
</event>
<event>
      5   9999  3.79277E-02  2.79826E+01 -1.00000E+00  1.55170E-01
      21    -1     0     0   502   501  0.000000000E+00  0.000000000E+00  1.626837827E+02  1.626837827E+02  0.000000000E+00  0.00000E+00  9.000E+00
      21    -1     0     0   501   512  0.000000000E+00  0.000000000E+00 -5.370948231E+02  5.370948231E+02  0.000000000E+00  0.00000E+00  9.000E+00
      25     1     1     2     0     0  1.914500057E+01  7.385909580E+01 -2.801082607E+02  3.160812155E+02  1.250000000E+02  0.00000E+00  9.000E+00
      25     1     1     2     0     0 -4.183079796E+00 -9.750580765E+01  9.993892088E+01  1.874504430E+02  1.250000000E+02  0.00000E+00  9.000E+00
      21     1     1     2   502   512 -1.496192077E+01  2.364671185E+01 -1.942417006E+02  1.962469473E+02  0.000000000E+00  0.00000E+00  9.000E+00
#rwgt            1           1   3.0469878133889558E-002           8      448459           0
</event>
<event>
      5   9999  3.79277E-02  3.34823E+01 -1.00000E+00  1.49799E-01
      21    -1     0     0   502   501  0.000000000E+00  0.000000000E+00  6.763734878E+02  6.763734878E+02  0.000000000E+00  0.00000E+00  9.000E+00
      21    -1     0     0   511   502  0.000000000E+00  0.000000000E+00 -1.986001691E+03  1.986001691E+03  0.000000000E+00  0.00000E+00  9.000E+00
      25     1     1     2     0     0  1.111715794E+02 -6.942417097E+01 -1.162226458E+02  2.152011593E+02  1.250000000E+02  0.00000E+00  9.000E+00
      25     1     1     2     0     0 -1.435310089E+02  6.082584771E+01  6.108025867E+02  6.426552219E+02  1.250000000E+02  0.00000E+00  9.000E+00
      21     1     1     2   511   501  3.235942952E+01  8.598323255E+00 -1.804208144E+03  1.804518797E+03  0.000000000E+00  0.00000E+00  9.000E+00
#rwgt            1           1   3.2712423102100208E-002           8      448796           0
</event>
<event>
      5   9999  3.79277E-02  1.01691E+02 -1.00000E+00  1.23501E-01
      21    -1     0     0   512   501  0.000000000E+00  0.000000000E+00  9.821698041E+01  9.821698041E+01  0.000000000E+00  0.00000E+00  9.000E+00
      21    -1     0     0   501   502  0.000000000E+00  0.000000000E+00 -6.248897630E+02  6.248897630E+02  0.000000000E+00  0.00000E+00  9.000E+00
      25     1     1     2     0     0 -2.083847868E+01 -6.653679099E+01 -7.295240094E+01  1.606500531E+02  1.250000000E+02  0.00000E+00  9.000E+00
      25     1     1     2     0     0  1.175312171E+02  9.802454132E+01 -4.029558485E+02  4.487993021E+02  1.250000000E+02  0.00000E+00  9.000E+00
      21     1     1     2   512   502 -9.669273842E+01 -3.148775033E+01 -5.076453318E+01  1.136573883E+02  2.132480600E-06  0.00000E+00  9.000E+00
#rwgt            1           1   4.9212791138046233E-002           8      448924           0
</event>
<event>
      5   9999  3.79277E-02  2.19946E+01 -1.00000E+00  1.63033E-01
      21    -1     0     0   502   501  0.000000000E+00  0.000000000E+00  3.411459768E+03  3.411459768E+03  0.000000000E+00  0.00000E+00  9.000E+00
      21    -1     0     0   501   511  0.000000000E+00  0.000000000E+00 -2.135052594E+01  2.135052594E+01  0.000000000E+00  0.00000E+00  9.000E+00
      25     1     1     2     0     0  1.170201435E+02  1.163584333E+02  7.218622003E+02  7.509614073E+02  1.250000000E+02  0.00000E+00  9.000E+00
      25     1     1     2     0     0 -9.666719346E+01 -1.080206309E+02  2.635255518E+03  2.642197882E+03  1.250000000E+02  0.00000E+00  9.000E+00
      21     1     1     2   502   511 -2.035294999E+01 -8.337802334E+00  3.299152344E+01  3.965100427E+01  6.743495762E-07  0.00000E+00  9.000E+00
#rwgt            1           1   2.0716830777105458E-002           8      449265           0
</event>
<event>
      5   9999  3.79277E-02  4.53488E+01 -1.00000E+00  1.41539E-01
      21    -1     0     0   502   501  0.000000000E+00  0.000000000E+00  1.557470996E+02  1.557470996E+02  0.000000000E+00  0.00000E+00  9.000E+00
      21    -1     0     0   512   502  0.000000000E+00  0.000000000E+00 -5.930345298E+02  5.930345298E+02  0.000000000E+00  0.00000E+00  9.000E+00
      25     1     1     2     0     0  3.936702706E+01  2.174956347E+02 -1.356209750E+02  2.878752556E+02  1.250000000E+02  0.00000E+00  9.000E+00
      25     1     1     2     0     0 -1.156457603E+01 -2.533221584E+02 -1.906804104E+02  3.410130119E+02  1.250000000E+02  0.00000E+00  9.000E+00
      21     1     1     2   512   501 -2.780245104E+01  3.582652370E+01 -1.109860448E+02  1.198933619E+02  1.348699152E-06  0.00000E+00  9.000E+00
#rwgt            1           1   3.8896590630319937E-002           8      449491           0
</event>
<event>
      5   9999  3.79277E-02  1.94898E+01 -1.00000E+00  1.67300E-01
      21    -1     0     0   502   501  0.000000000E+00  0.000000000E+00  6.236188189E+01  6.236188189E+01  0.000000000E+00  0.00000E+00  9.000E+00
      21    -1     0     0   501   511  0.000000000E+00  0.000000000E+00 -8.418108401E+02  8.418108401E+02  0.000000000E+00  0.00000E+00  9.000E+00
      25     1     1     2     0     0  1.482983697E+02 -8.184369376E+01 -3.667566803E+02  4.228785395E+02  1.250000000E+02  0.00000E+00  9.000E+00
      25     1     1     2     0     0 -1.289909182E+02  8.450348875E+01 -2.587485228E+02  3.261215949E+02  1.250000000E+02  0.00000E+00  9.000E+00
      21     1     1     2   502   511 -1.930745156E+01 -2.659794988E+00 -1.539437552E+02  1.551725876E+02  1.907348633E-06  0.00000E+00  9.000E+00
#rwgt            1           1   3.3763785169593594E-002           8      449776           0
</event>
<event>
      5   9999  3.79277E-02  2.90357E+01 -1.00000E+00  1.54032E-01
      21    -1     0     0   502   512  0.000000000E+00  0.000000000E+00  8.147760818E+02  8.147760818E+02  0.000000000E+00  0.00000E+00  9.000E+00
      21    -1     0     0   501   502  0.000000000E+00  0.000000000E+00 -7.829241103E+01  7.829241103E+01  0.000000000E+00  0.00000E+00  9.000E+00
      25     1     1     2     0     0 -6.194531923E+01  1.110015870E+02  5.898112023E+01  1.877827133E+02  1.250000000E+02  0.00000E+00  9.000E+00
      25     1     1     2     0     0  3.461302039E+01 -1.012026199E+02  6.101753538E+02  6.319643929E+02  1.250000000E+02  0.00000E+00  9.000E+00
      21     1     1     2   501   512  2.733229884E+01 -9.798967043E+00  6.732719672E+01  7.332138660E+01  9.536743164E-07  0.00000E+00  9.000E+00
#rwgt            1           1   3.6170826967671987E-002           8      449950           0
</event>
<event>
      5   9999  3.79277E-02  2.38188E+01 -1.00000E+00  1.60342E-01
      21    -1     0     0   502   501  0.000000000E+00  0.000000000E+00  9.075029825E+02  9.075029825E+02  0.000000000E+00  0.00000E+00  9.000E+00
       2    -1     0     0   501     0  0.000000000E+00  0.000000000E+00 -1.951470197E+02  1.951470197E+02  0.000000000E+00  0.00000E+00  9.000E+00
      25     1     1     2     0     0 -1.493205633E+02 -6.568233493E+01 -1.056296597E+01  2.057847807E+02  1.250000000E+02  0.00000E+00  9.000E+00
      25     1     1     2     0     0  1.503870831E+02  8.947720876E+01  7.936298426E+02  8.222504319E+02  1.250000000E+02  0.00000E+00  9.000E+00
       2     1     1     2   502     0 -1.066519872E+00 -2.379487383E+01 -7.071091384E+01  7.461478957E+01  9.536743164E-07  0.00000E+00  9.000E+00
#rwgt            1           1   4.1649235646064403E-002           8      450075           0
</event>
<event>
      5   9999  3.79277E-02  2.15305E+01 -1.00000E+00  1.63770E-01
      21    -1     0     0   502   501  0.000000000E+00  0.000000000E+00  1.479831765E+02  1.479831765E+02  0.000000000E+00  0.00000E+00  9.000E+00
      21    -1     0     0   501   511  0.000000000E+00  0.000000000E+00 -3.360564692E+02  3.360564692E+02  0.000000000E+00  0.00000E+00  9.000E+00
      25     1     1     2     0     0  7.474465891E+01  8.440211530E+01  5.821402576E+01  1.781133176E+02  1.250000000E+02  0.00000E+00  9.000E+00
      25     1     1     2     0     0 -7.680722033E+01 -6.297067571E+01 -2.223324352E+02  2.737176772E+02  1.250000000E+02  0.00000E+00  9.000E+00
      21     1     1     2   502   511  2.062561426E+00 -2.143143958E+01 -2.395488332E+01  3.220865096E+01  3.371747881E-07  0.00000E+00  9.000E+00
#rwgt            1           1   5.1623974347359484E-002           8      450363           0
</event>
<event>
      5   9999  3.79277E-02  2.29984E+01 -1.00000E+00  1.61514E-01
      21    -1     0     0   502   501  0.000000000E+00  0.000000000E+00  3.169810296E+02  3.169810296E+02  0.000000000E+00  0.00000E+00  9.000E+00
      21    -1     0     0   512   502  0.000000000E+00  0.000000000E+00 -3.648257936E+02  3.648257936E+02  0.000000000E+00  0.00000E+00  9.000E+00
      25     1     1     2     0     0  6.732231671E+00  2.636663582E+01 -1.825766944E+02  2.229344562E+02  1.250000000E+02  0.00000E+00  9.000E+00
      25     1     1     2     0     0 -9.500377195E+00 -3.535459495E+00  2.826259284E+02  3.092008604E+02  1.250000000E+02  0.00000E+00  9.000E+00
      21     1     1     2   512   501  2.768145525E+00 -2.283117632E+01 -1.478939981E+02  1.496715067E+02  0.000000000E+00  0.00000E+00  9.000E+00
#rwgt            1           1   4.5496407116180713E-002           8      450654           0
</event>
<event>
      5   9999  3.79277E-02  1.56478E+02 -1.00000E+00  1.15670E-01
      21    -1     0     0   502   501  0.000000000E+00  0.000000000E+00  6.683496162E+02  6.683496162E+02  0.000000000E+00  0.00000E+00  9.000E+00
      21    -1     0     0   501   511  0.000000000E+00  0.000000000E+00 -2.964448087E+02  2.964448087E+02  0.000000000E+00  0.00000E+00  9.000E+00
      25     1     1     2     0     0  9.891978876E+00 -2.746582644E+00  4.039125614E+02  4.229370547E+02  1.250000000E+02  0.00000E+00  9.000E+00
      25     1     1     2     0     0 -6.431631490E+01 -1.439620692E+02  1.856599905E+02  2.737814782E+02  1.250000000E+02  0.00000E+00  9.000E+00
      21     1     1     2   502   511  5.442433603E+01  1.467086519E+02 -2.176677445E+02  2.680758920E+02  3.814697266E-06  0.00000E+00  9.000E+00
#rwgt            1           1   5.5223104977902268E-002           8      450799           0
</event>
<event>
      5   9999  3.79277E-02  8.98072E+01 -1.00000E+00  1.25965E-01
      21    -1     0     0   502   501  0.000000000E+00  0.000000000E+00  4.792469546E+02  4.792469546E+02  0.000000000E+00  0.00000E+00  9.000E+00
      21    -1     0     0   512   502  0.000000000E+00  0.000000000E+00 -2.785127786E+02  2.785127786E+02  0.000000000E+00  0.00000E+00  9.000E+00
      25     1     1     2     0     0 -3.069289687E+01 -7.417843755E+01 -1.024818591E+02  1.804772173E+02  1.250000000E+02  0.00000E+00  9.000E+00
      25     1     1     2     0     0  1.033680041E+02  2.141806452E+01  4.078200945E+02  4.394154154E+02  1.250000000E+02  0.00000E+00  9.000E+00
      21     1     1     2   512   501 -7.267510720E+01  5.276037304E+01 -1.046040594E+02  1.378671006E+02  1.907348633E-06  0.00000E+00  9.000E+00
#rwgt            1           1   4.0218094316482038E-002           8      450860           0
</event>
<event>
      5   9999  3.79277E-02  5.56333E+01 -1.00000E+00  1.36481E-01
      21    -1     0     0   502   501  0.000000000E+00  0.000000000E+00  7.894182402E+01  7.894182402E+01  0.000000000E+00  0.00000E+00  9.000E+00
      21    -1     0     0   501   511  0.000000000E+00  0.000000000E+00 -9.410639908E+02  9.410639908E+02  0.000000000E+00  0.00000E+00  9.000E+00
      25     1     1     2     0     0 -3.591757935E+01 -5.573846026E+01 -2.967532047E+01  1.445768761E+02  1.250000000E+02  0.00000E+00  9.000E+00
      25     1     1     2     0     0  9.155090451E+01  5.573828815E+01 -3.191309934E+02  3.591071092E+02  1.250000000E+02  0.00000E+00  9.000E+00
      21     1     1     2   502   511 -5.563332516E+01  1.721104003E-04 -5.133158529E+02  5.163218295E+02  0.000000000E+00  0.00000E+00  9.000E+00
#rwgt            1           1   5.0259614235921665E-002           8      450970           0
</event>
<event>
      5   9999  3.79277E-02  1.16838E+01 -1.00000E+00  1.88256E-01
      21    -1     0     0   512   501  0.000000000E+00  0.000000000E+00  1.648057446E+03  1.648057446E+03  0.000000000E+00  0.00000E+00  9.000E+00
      21    -1     0     0   501   502  0.000000000E+00  0.000000000E+00 -2.364782729E+01  2.364782729E+01  0.000000000E+00  0.00000E+00  9.000E+00
      25     1     1     2     0     0 -8.684047806E+01 -6.248609442E+01  3.798441020E+02  4.139472460E+02  1.250000000E+02  0.00000E+00  9.000E+00
      25     1     1     2     0     0  9.118277576E+01  5.163913068E+01  1.026409150E+03  1.039289008E+03  1.250000000E+02  0.00000E+00  9.000E+00
      21     1     1     2   512   502 -4.342297699E+00  1.084696374E+01  2.181563667E+02  2.184690196E+02  3.814697266E-06  0.00000E+00  9.000E+00
#rwgt            1           1   5.2556191271784354E-002           8      451189           0
</event>
<event>
      5   9999  3.79277E-02  2.04743E+01 -1.00000E+00  1.65534E-01
      21    -1     0     0   502   501  0.000000000E+00  0.000000000E+00  2.824747258E+02  2.824747258E+02  0.000000000E+00  0.00000E+00  9.000E+00
       1    -1     0     0   501     0  0.000000000E+00  0.000000000E+00 -7.878265533E+02  7.878265533E+02  0.000000000E+00  0.00000E+00  9.000E+00
      25     1     1     2     0     0  1.248820202E+02  1.428964513E+02  2.453409418E+01  2.285647316E+02  1.250000000E+02  0.00000E+00  9.000E+00
      25     1     1     2     0     0 -1.284947814E+02 -1.630494485E+02  6.149177052E+01  2.500045387E+02  1.250000000E+02  0.00000E+00  9.000E+00
       1     1     1     2   502     0  3.612761189E+00  2.015299727E+01 -5.913776923E+02  5.917320088E+02  1.078959322E-05  0.00000E+00  9.000E+00
#rwgt            1           1  0.27118844984090501                8      451522           0
</event>
<event>
      5   9999  3.79277E-02  7.43315E+01 -1.00000E+00  1.29914E-01
      21    -1     0     0   511   501  0.000000000E+00  0.000000000E+00  1.810919789E+02  1.810919789E+02  0.000000000E+00  0.00000E+00  9.000E+00
      21    -1     0     0   501   502  0.000000000E+00  0.000000000E+00 -1.419372164E+03  1.419372164E+03  0.000000000E+00  0.00000E+00  9.000E+00
      25     1     1     2     0     0 -3.826908145E+02 -5.370071900E+01 -7.392732253E+02  8.434962527E+02  1.250000000E+02  0.00000E+00  9.000E+00
      25     1     1     2     0     0  4.261972197E+02 -6.568361000E+00 -5.158574217E+02  6.807503896E+02  1.250000000E+02  0.00000E+00  9.000E+00
      21     1     1     2   511   502 -4.350640524E+01  6.026908000E+01  1.685046211E+01  7.621750044E+01  1.922192037E-06  0.00000E+00  9.000E+00
#rwgt            1           1   1.7356338761093073E-002           8      451752           0
</event>
<event>
      5   9999  3.79277E-02  1.14682E+02 -1.00000E+00  1.21210E-01
      21    -1     0     0   502   501  0.000000000E+00  0.000000000E+00  4.455814560E+02  4.455814560E+02  0.000000000E+00  0.00000E+00  9.000E+00
      21    -1     0     0   512   502  0.000000000E+00  0.000000000E+00 -1.792845959E+03  1.792845959E+03  0.000000000E+00  0.00000E+00  9.000E+00
      25     1     1     2     0     0 -2.003580578E+02 -2.178896468E+02  5.705964670E+01  3.263434583E+02  1.250000000E+02  0.00000E+00  9.000E+00
      25     1     1     2     0     0  1.083275862E+02  2.863180151E+02  1.431837641E+02  3.603324326E+02  1.250000000E+02  0.00000E+00  9.000E+00
      21     1     1     2   512   501  9.203047168E+01 -6.842836832E+01 -1.547507914E+03  1.551751524E+03  3.051757812E-05  0.00000E+00  9.000E+00
#rwgt            1           1   3.8712566172223503E-002           8      451920           0
</event>
<event>
      5   9999  3.79277E-02  2.09735E+01 -1.00000E+00  1.64684E-01
      21    -1     0     0   511   501  0.000000000E+00  0.000000000E+00  4.109526809E+02  4.109526809E+02  0.000000000E+00  0.00000E+00  9.000E+00
      21    -1     0     0   501   502  0.000000000E+00  0.000000000E+00 -3.674534749E+02  3.674534749E+02  0.000000000E+00  0.00000E+00  9.000E+00
      25     1     1     2     0     0 -1.146097654E+02  1.372902017E+02 -1.370433692E+02  2.576623427E+02  1.250000000E+02  0.00000E+00  9.000E+00
      25     1     1     2     0     0  1.229704138E+02 -1.180551605E+02 -1.038925852E+02  2.355364364E+02  1.250000000E+02  0.00000E+00  9.000E+00
      21     1     1     2   511   502 -8.360648405E+00 -1.923504119E+01  2.844351604E+02  2.852073767E+02  5.394796609E-06  0.00000E+00  9.000E+00
#rwgt            1           1   4.5474505871211379E-002           8      452290           0
</event>
<event>
      5   9999  3.79277E-02  5.87300E+00 -1.00000E+00  2.26925E-01
      21    -1     0     0   502   501  0.000000000E+00  0.000000000E+00  1.882506344E+02  1.882506344E+02  0.000000000E+00  0.00000E+00  9.000E+00
       2    -1     0     0   501     0  0.000000000E+00  0.000000000E+00 -2.943116637E+03  2.943116637E+03  0.000000000E+00  0.00000E+00  9.000E+00
      25     1     1     2     0     0  1.299651635E+02 -5.372447578E+01  2.344937371E+01  1.896104854E+02  1.250000000E+02  0.00000E+00  9.000E+00
      25     1     1     2     0     0 -1.258373108E+02  5.790214354E+01 -2.478548850E+01  1.882206351E+02  1.250000000E+02  0.00000E+00  9.000E+00
       2     1     1     2   502     0 -4.127852717E+00 -4.177667754E+00 -2.753529888E+03  2.753536151E+03  6.103515625E-05  0.00000E+00  9.000E+00
#rwgt            1           1   2.1487978128052795E-002           8      452420           0
</event>
<event>
      5   9999  3.79277E-02  1.68100E+01 -1.00000E+00  1.72846E-01
      21    -1     0     0   502   501  0.000000000E+00  0.000000000E+00  3.140921922E+02  3.140921922E+02  0.000000000E+00  0.00000E+00  9.000E+00
      21    -1     0     0   511   502  0.000000000E+00  0.000000000E+00 -7.100748383E+02  7.100748383E+02  0.000000000E+00  0.00000E+00  9.000E+00
      25     1     1     2     0     0  3.022978285E+02 -1.145702407E+02  1.375204749E+02  3.728903299E+02  1.250000000E+02  0.00000E+00  9.000E+00
      25     1     1     2     0     0 -3.121283245E+02  1.009343332E+02 -4.765364101E+02  5.918815597E+02  1.250000000E+02  0.00000E+00  9.000E+00
      21     1     1     2   511   501  9.830496009E+00  1.363590744E+01 -5.696671077E+01  5.939514088E+01  1.168007728E-06  0.00000E+00  9.000E+00
#rwgt            1           1   8.1666879077106833E-002           8      452709           0
</event>
<event>
      5   9999  3.79277E-02  4.37670E+01 -1.00000E+00  1.42457E-01
      21    -1     0     0   502   512  0.000000000E+00  0.000000000E+00  1.049412963E+03  1.049412963E+03  0.000000000E+00  0.00000E+00  9.000E+00
      21    -1     0     0   501   502  0.000000000E+00  0.000000000E+00 -1.485881503E+02  1.485881503E+02  0.000000000E+00  0.00000E+00  9.000E+00
      25     1     1     2     0     0 -4.147216766E+01 -1.611254958E+02  2.396694393E+01  2.094773985E+02  1.250000000E+02  0.00000E+00  9.000E+00
      25     1     1     2     0     0 -1.557377047E+00  1.531249449E+02  1.217718347E+02  2.321703123E+02  1.250000000E+02  0.00000E+00  9.000E+00
      21     1     1     2   501   512  4.302954470E+01  8.000550881E+00  7.550860340E+02  7.563534024E+02  1.525878906E-05  0.00000E+00  9.000E+00
#rwgt            1           1   3.9366681138388961E-002           8      453061           0
</event>
<event>
      5   9999  3.79277E-02  8.91942E+01 -1.00000E+00  1.26104E-01
      21    -1     0     0   502   501  0.000000000E+00  0.000000000E+00  1.653603313E+03  1.653603313E+03  0.000000000E+00  0.00000E+00  9.000E+00
      21    -1     0     0   511   502  0.000000000E+00  0.000000000E+00 -7.523093093E+01  7.523093093E+01  0.000000000E+00  0.00000E+00  9.000E+00
      25     1     1     2     0     0  5.030487615E+01 -7.302861869E+01  5.856032996E+01  1.640672787E+02  1.250000000E+02  0.00000E+00  9.000E+00
      25     1     1     2     0     0 -1.290379247E+01  1.540024892E+02  1.406919582E+03  1.420890912E+03  1.250000000E+02  0.00000E+00  9.000E+00
      21     1     1     2   511   501 -3.740108368E+01 -8.097387052E+01  1.128924701E+02  1.438760528E+02  0.000000000E+00  0.00000E+00  9.000E+00
#rwgt            1           1   3.8710140955684480E-002           8      453141           0
</event>
<event>
      5   9999  3.79277E-02  5.44964E+01 -1.00000E+00  1.36975E-01
      21    -1     0     0   512   501  0.000000000E+00  0.000000000E+00  3.590230102E+02  3.590230102E+02  0.000000000E+00  0.00000E+00  9.000E+00
      21    -1     0     0   501   502  0.000000000E+00  0.000000000E+00 -4.264469523E+02  4.264469523E+02  0.000000000E+00  0.00000E+00  9.000E+00
      25     1     1     2     0     0  2.944545973E+02  1.467041412E+02 -1.702161543E+01  3.523355649E+02  1.250000000E+02  0.00000E+00  9.000E+00
      25     1     1     2     0     0 -2.403927997E+02 -1.535732692E+02 -1.293215118E+02  3.372276687E+02  1.250000000E+02  0.00000E+00  9.000E+00
      21     1     1     2   512   502 -5.406179758E+01  6.869128078E+00  7.891918511E+01  9.590672895E+01  9.536743164E-07  0.00000E+00  9.000E+00
#rwgt            1           1   5.0969973412816075E-002           8      453313           0
</event>
<event>
      5   9999  3.79277E-02  4.37905E+01 -1.00000E+00  1.42443E-01
      21    -1     0     0   502   501  0.000000000E+00  0.000000000E+00  1.528489840E+02  1.528489840E+02  0.000000000E+00  0.00000E+00  9.000E+00
      21    -1     0     0   501   511  0.000000000E+00  0.000000000E+00 -4.754859161E+02  4.754859161E+02  0.000000000E+00  0.00000E+00  9.000E+00
      25     1     1     2     0     0 -8.452829813E+01 -2.796169383E+01  4.449788242E+01  1.597872055E+02  1.250000000E+02  0.00000E+00  9.000E+00
      25     1     1     2     0     0  5.816290597E+01 -7.002214076E+00 -4.759515777E+01  1.460214151E+02  1.250000000E+02  0.00000E+00  9.000E+00
      21     1     1     2   502   511  2.636539216E+01  3.496390791E+01 -3.195396568E+02  3.225262795E+02  5.394796609E-06  0.00000E+00  9.000E+00
#rwgt            1           1   6.4585317039274073E-002           8      453543           0
</event>
<event>
      5   9999  3.79277E-02  4.10963E+01 -1.00000E+00  1.44116E-01
      21    -1     0     0   502   501  0.000000000E+00  0.000000000E+00  1.207221233E+03  1.207221233E+03  0.000000000E+00  0.00000E+00  9.000E+00
      21    -1     0     0   512   502  0.000000000E+00  0.000000000E+00 -3.415164076E+02  3.415164076E+02  0.000000000E+00  0.00000E+00  9.000E+00
      25     1     1     2     0     0 -1.344436560E+02 -1.600858035E+02  5.890001667E+02  6.373764645E+02  1.250000000E+02  0.00000E+00  9.000E+00
      25     1     1     2     0     0  1.550901665E+02  1.245523541E+02  5.693133567E+02  6.158806270E+02  1.250000000E+02  0.00000E+00  9.000E+00
      21     1     1     2   512   501 -2.064651048E+01  3.553344949E+01 -2.926086982E+02  2.954805488E+02  6.607249480E-06  0.00000E+00  9.000E+00
#rwgt            1           1   3.8251469850832887E-002           8      453667           0
</event>
<event>
      5   9999  3.79277E-02  9.35787E+01 -1.00000E+00  1.25138E-01
      21    -1     0     0   511   501  0.000000000E+00  0.000000000E+00  1.859753067E+02  1.859753067E+02  0.000000000E+00  0.00000E+00  9.000E+00
      21    -1     0     0   501   502  0.000000000E+00  0.000000000E+00 -1.021218666E+03  1.021218666E+03  0.000000000E+00  0.00000E+00  9.000E+00
      25     1     1     2     0     0  1.070917827E+02 -1.488464835E+02 -8.000477322E+02  8.302561649E+02  1.250000000E+02  0.00000E+00  9.000E+00
      25     1     1     2     0     0 -1.509423316E+01  1.317167741E+02 -1.448554875E+02  2.327772685E+02  1.250000000E+02  0.00000E+00  9.000E+00
      21     1     1     2   511   502 -9.199754954E+01  1.712970942E+01  1.096598605E+02  1.441605392E+02  1.348699152E-06  0.00000E+00  9.000E+00
#rwgt            2          11   2.4719718047616383E-003           8      453844           0
</event>
<event>
      5   9999  3.79277E-02  4.40240E+01 -1.00000E+00  1.42305E-01
      21    -1     0     0   502   501  0.000000000E+00  0.000000000E+00  1.599441810E+02  1.599441810E+02  0.000000000E+00  0.00000E+00  9.000E+00
      21    -1     0     0   512   502  0.000000000E+00  0.000000000E+00 -4.771163152E+02  4.771163152E+02  0.000000000E+00  0.00000E+00  9.000E+00
      25     1     1     2     0     0 -2.130879394E+02  3.694242005E+01 -1.972793747E+02  3.183007446E+02  1.250000000E+02  0.00000E+00  9.000E+00
      25     1     1     2     0     0  1.691694749E+02 -3.998910635E+01 -2.679619987E+01  2.157787668E+02  1.250000000E+02  0.00000E+00  9.000E+00
      21     1     1     2   512   501  4.391846446E+01  3.046686308E+00 -9.309655965E+01  1.029809848E+02  0.000000000E+00  0.00000E+00  9.000E+00
#rwgt            1           1   4.3574923604181519E-002           8      453879           0
</event>
<event>
      5   9999  3.79277E-02  4.91598E+01 -1.00000E+00  1.39497E-01
      21    -1     0     0   502   501  0.000000000E+00  0.000000000E+00  4.758750735E+02  4.758750735E+02  0.000000000E+00  0.00000E+00  9.000E+00
      21    -1     0     0   501   511  0.000000000E+00  0.000000000E+00 -1.176551749E+02  1.176551749E+02  0.000000000E+00  0.00000E+00  9.000E+00
      25     1     1     2     0     0 -1.229952318E+02  7.419525794E+01  4.783371072E+01  1.963309126E+02  1.250000000E+02  0.00000E+00  9.000E+00
      25     1     1     2     0     0  7.746646728E+01 -9.273749367E+01  3.003290326E+02  3.470213598E+02  1.250000000E+02  0.00000E+00  9.000E+00
      21     1     1     2   502   511  4.552876457E+01  1.854223573E+01  1.005715518E+01  5.017797604E+01  8.259061849E-07  0.00000E+00  9.000E+00
#rwgt            1           1   2.6494758208574918E-002           8      453985           0
</event>
<event>
      5   9999  3.79277E-02  1.59594E+01 -1.00000E+00  1.74884E-01
      21    -1     0     0   502   501  0.000000000E+00  0.000000000E+00  1.084993952E+02  1.084993952E+02  0.000000000E+00  0.00000E+00  9.000E+00
      21    -1     0     0   512   502  0.000000000E+00  0.000000000E+00 -1.057129157E+03  1.057129157E+03  0.000000000E+00  0.00000E+00  9.000E+00
      25     1     1     2     0     0 -1.089367674E+02 -1.482209520E+02 -1.971019915E+02  2.971714403E+02  1.250000000E+02  0.00000E+00  9.000E+00
      25     1     1     2     0     0  1.096437356E+02  1.322772474E+02 -1.350199051E+02  2.517427134E+02  1.250000000E+02  0.00000E+00  9.000E+00
      21     1     1     2   512   501 -7.069682676E-01  1.594370464E+01 -6.165078650E+02  6.167143984E+02  1.321449896E-05  0.00000E+00  9.000E+00
#rwgt            1           1   3.5979931727447095E-002           8      454250           0
</event>
<event>
      5   9999  3.79277E-02  2.68095E+01 -1.00000E+00  1.56511E-01
      21    -1     0     0   502   501  0.000000000E+00  0.000000000E+00  1.717898882E+03  1.717898882E+03  0.000000000E+00  0.00000E+00  9.000E+00
      21    -1     0     0   501   511  0.000000000E+00  0.000000000E+00 -3.772580535E+01  3.772580535E+01  0.000000000E+00  0.00000E+00  9.000E+00
      25     1     1     2     0     0 -1.374396926E+02  7.671952660E+01  1.350275751E+03  1.365153895E+03  1.250000000E+02  0.00000E+00  9.000E+00
      25     1     1     2     0     0  1.111553977E+02 -7.143864346E+01  2.928835250E+02  3.447676920E+02  1.250000000E+02  0.00000E+00  9.000E+00
      21     1     1     2   502   511  2.628429493E+01 -5.280883140E+00  3.701380037E+01  4.570309950E+01  4.768371582E-07  0.00000E+00  9.000E+00
#rwgt            1           1   3.9547756074610932E-002           8      454544           0
</event>
<event>
      5   9999  3.79277E-02  5.32012E+01 -1.00000E+00  1.37555E-01
      21    -1     0     0   502   501  0.000000000E+00  0.000000000E+00  1.839411354E+03  1.839411354E+03  0.000000000E+00  0.00000E+00  9.000E+00
      21    -1     0     0   501   512  0.000000000E+00  0.000000000E+00 -2.769207796E+01  2.769207796E+01  0.000000000E+00  0.00000E+00  9.000E+00
      25     1     1     2     0     0 -4.094819117E+01 -1.515470672E+02  1.047739067E+03  1.066782743E+03  1.250000000E+02  0.00000E+00  9.000E+00
      25     1     1     2     0     0  7.706052515E+01  1.124796363E+02  5.775250139E+02  6.064240553E+02  1.250000000E+02  0.00000E+00  9.000E+00
      21     1     1     2   502   512 -3.611233398E+01  3.906743088E+01  1.864551951E+02  1.938966338E+02  2.697398305E-06  0.00000E+00  9.000E+00
#rwgt            1           1  0.11673507101872892                8      454697           0
</event>
<event>
      5   9999  3.79277E-02  2.63667E+01 -1.00000E+00  1.57039E-01
      21    -1     0     0   502   501  0.000000000E+00  0.000000000E+00  4.856255984E+02  4.856255984E+02  0.000000000E+00  0.00000E+00  9.000E+00
      21    -1     0     0   511   502  0.000000000E+00  0.000000000E+00 -2.881704238E+02  2.881704238E+02  0.000000000E+00  0.00000E+00  9.000E+00
      25     1     1     2     0     0 -1.463039652E+02 -1.935703909E+02  2.945642568E+02  4.015811846E+02  1.250000000E+02  0.00000E+00  9.000E+00
      25     1     1     2     0     0  1.199556460E+02  1.925849511E+02  1.263182187E+01  2.593508884E+02  1.250000000E+02  0.00000E+00  9.000E+00
      21     1     1     2   511   501  2.634831917E+01  9.854397542E-01 -1.097409040E+02  1.128639492E+02  0.000000000E+00  0.00000E+00  9.000E+00
#rwgt            1           1   4.0817101549509141E-002           8      454797           0
</event>
<event>
      5   9999  3.79277E-02  1.67282E+01 -1.00000E+00  1.73035E-01
      21    -1     0     0   512   501  0.000000000E+00  0.000000000E+00  3.565244785E+02  3.565244785E+02  0.000000000E+00  0.00000E+00  9.000E+00
      21    -1     0     0   501   502  0.000000000E+00  0.000000000E+00 -2.434800569E+02  2.434800569E+02  0.000000000E+00  0.00000E+00  9.000E+00
      25     1     1     2     0     0  2.413181536E+02  3.153101565E+01 -3.931948177E+00  2.736222148E+02  1.250000000E+02  0.00000E+00  9.000E+00
      25     1     1     2     0     0 -2.481955964E+02 -1.628191795E+01  8.630237302E+01  2.914433985E+02  1.250000000E+02  0.00000E+00  9.000E+00
      21     1     1     2   512   502  6.877442846E+00 -1.524909770E+01  3.067399683E+01  3.493892216E+01  0.000000000E+00  0.00000E+00  9.000E+00
#rwgt            1           1   4.0683700454821156E-002           8      455003           0
</event>
<event>
      5   9999  3.79277E-02  8.48955E+01 -1.00000E+00  1.27113E-01
      21    -1     0     0   502   501  0.000000000E+00  0.000000000E+00  2.403695240E+02  2.403695240E+02  0.000000000E+00  0.00000E+00  9.000E+00
      21    -1     0     0   511   502  0.000000000E+00  0.000000000E+00 -5.161519908E+02  5.161519908E+02  0.000000000E+00  0.00000E+00  9.000E+00
      25     1     1     2     0     0  1.930933454E+02  4.991176626E+01 -5.960479968E+01  2.428043587E+02  1.250000000E+02  0.00000E+00  9.000E+00
      25     1     1     2     0     0 -1.249156802E+02 -1.004988936E+02  7.015841670E+01  2.150608244E+02  1.250000000E+02  0.00000E+00  9.000E+00
      21     1     1     2   511   501 -6.817766522E+01  5.058712731E+01 -2.863360838E+02  2.986563316E+02  0.000000000E+00  0.00000E+00  9.000E+00
#rwgt            1           1   3.1827736060788571E-002           8      455239           0
</event>
<event>
      5   9999  3.79277E-02  4.39208E+01 -1.00000E+00  1.42366E-01
      21    -1     0     0   512   501  0.000000000E+00  0.000000000E+00  1.884672327E+02  1.884672327E+02  0.000000000E+00  0.00000E+00  9.000E+00
      21    -1     0     0   501   502  0.000000000E+00  0.000000000E+00 -2.608319961E+02  2.608319961E+02  0.000000000E+00  0.00000E+00  9.000E+00
      25     1     1     2     0     0 -3.026122155E+01 -1.000112847E+02 -1.149264051E+02  1.993767218E+02  1.250000000E+02  0.00000E+00  9.000E+00
      25     1     1     2     0     0  6.681905459E+01  7.566869273E+01 -3.158180550E+01  1.637465956E+02  1.250000000E+02  0.00000E+00  9.000E+00
      21     1     1     2   512   502 -3.655783304E+01  2.434259199E+01  7.414344722E+01  8.617591140E+01  9.536743164E-07  0.00000E+00  9.000E+00
#rwgt            1           1   4.6048824674352021E-002           8      455397           0
</event>
<event>
      5   9999  3.79277E-02  3.25892E+01 -1.00000E+00  1.50584E-01
      21    -1     0     0   511   501  0.000000000E+00  0.000000000E+00  4.783838552E+02  4.783838552E+02  0.000000000E+00  0.00000E+00  9.000E+00
      21    -1     0     0   501   502  0.000000000E+00  0.000000000E+00 -1.839337754E+02  1.839337754E+02  0.000000000E+00  0.00000E+00  9.000E+00
      25     1     1     2     0     0  1.656813715E+02  6.484119761E+01  1.340330075E+01  2.178516611E+02  1.250000000E+02  0.00000E+00  9.000E+00
      25     1     1     2     0     0 -1.856346617E+02 -3.907450650E+01  8.009452842E+01  2.408883106E+02  1.250000000E+02  0.00000E+00  9.000E+00
      21     1     1     2   511   502  1.995329021E+01 -2.576669111E+01  2.009522507E+02  2.035776589E+02  0.000000000E+00  0.00000E+00  9.000E+00
#rwgt            1           1   2.3304448669643551E-002           8      455838           0
</event>
<event>
      5   9999  3.79277E-02  1.89391E+01 -1.00000E+00  1.68346E-01
      21    -1     0     0   502   501  0.000000000E+00  0.000000000E+00  2.567389026E+02  2.567389026E+02  0.000000000E+00  0.00000E+00  9.000E+00
      21    -1     0     0   512   502  0.000000000E+00  0.000000000E+00 -1.753542331E+02  1.753542331E+02  0.000000000E+00  0.00000E+00  9.000E+00
      25     1     1     2     0     0 -6.975532632E+00 -1.059969039E+02  1.685387114E+02  2.351899209E+02  1.250000000E+02  0.00000E+00  9.000E+00
      25     1     1     2     0     0  2.079584844E+01  9.304740739E+01 -8.181566573E+01  1.772260999E+02  1.250000000E+02  0.00000E+00  9.000E+00
      21     1     1     2   512   501 -1.382031581E+01  1.294949648E+01 -5.338376102E+00  1.967711481E+01  3.998401125E-07  0.00000E+00  9.000E+00
#rwgt            1           1   4.5048280347835416E-002           8      456025           0
</event>
<event>
      5   9999  3.79277E-02  1.93352E+01 -1.00000E+00  1.67590E-01
      21    -1     0     0   502   501  0.000000000E+00  0.000000000E+00  5.428970220E+02  5.428970220E+02  0.000000000E+00  0.00000E+00  9.000E+00
      21    -1     0     0   511   502  0.000000000E+00  0.000000000E+00 -6.763782829E+01  6.763782829E+01  0.000000000E+00  0.00000E+00  9.000E+00
      25     1     1     2     0     0 -1.044884997E+02  2.234121359E+01  9.329631817E+01  1.890666003E+02  1.250000000E+02  0.00000E+00  9.000E+00
      25     1     1     2     0     0  8.765894834E+01 -1.282204660E+01  3.645943198E+02  3.954775772E+02  1.250000000E+02  0.00000E+00  9.000E+00
      21     1     1     2   511   501  1.682955132E+01 -9.519166985E+00  1.736855581E+01  2.599067272E+01  4.129530925E-07  0.00000E+00  9.000E+00
#rwgt            1           1   4.2376889316492333E-002           8      456293           0
</event>
<event>
      5   9999  3.79277E-02  6.70558E+01 -1.00000E+00  1.32173E-01
      21    -1     0     0   512   501  0.000000000E+00  0.000000000E+00  1.325207601E+03  1.325207601E+03  0.000000000E+00  0.00000E+00  9.000E+00
      21    -1     0     0   501   502  0.000000000E+00  0.000000000E+00 -6.576317157E+01  6.576317157E+01  0.000000000E+00  0.00000E+00  9.000E+00
      25     1     1     2     0     0  1.682790279E+01  2.321353217E+02  7.547361908E+02  7.996384831E+02  1.250000000E+02  0.00000E+00  9.000E+00
      25     1     1     2     0     0  2.853784065E+01 -1.827548774E+02  2.874376929E+02  3.639494207E+02  1.250000000E+02  0.00000E+00  9.000E+00
      21     1     1     2   512   502 -4.536574343E+01 -4.938044434E+01  2.172705463E+02  2.273828693E+02  3.814697266E-06  0.00000E+00  9.000E+00
#rwgt            1           1   4.4877337297449554E-002           8      456507           0
</event>
<event>
      5   9999  3.79277E-02  6.11919E+01 -1.00000E+00  1.34248E-01
      21    -1     0     0   502   501  0.000000000E+00  0.000000000E+00  4.858391271E+02  4.858391271E+02  0.000000000E+00  0.00000E+00  9.000E+00
      21    -1     0     0   511   502  0.000000000E+00  0.000000000E+00 -2.640575831E+02  2.640575831E+02  0.000000000E+00  0.00000E+00  9.000E+00
      25     1     1     2     0     0  6.224155026E+00 -1.579923952E+02  3.873561467E+02  4.366578998E+02  1.250000000E+02  0.00000E+00  9.000E+00
      25     1     1     2     0     0 -6.481735857E+01  1.403492410E+02 -1.527623362E+02  2.507200247E+02  1.250000000E+02  0.00000E+00  9.000E+00
      21     1     1     2   511   501  5.859320355E+01  1.764315411E+01 -1.281226656E+01  6.251878568E+01  9.536743164E-07  0.00000E+00  9.000E+00
#rwgt            1           1   4.4149263810047461E-002           8      456725           0
</event>
<event>
      5   9999  3.79277E-02  6.82699E+01 -1.00000E+00  1.31773E-01
      21    -1     0     0   512   501  0.000000000E+00  0.000000000E+00  1.277833949E+03  1.277833949E+03  0.000000000E+00  0.00000E+00  9.000E+00
      21    -1     0     0   501   502  0.000000000E+00  0.000000000E+00 -6.675337279E+01  6.675337279E+01  0.000000000E+00  0.00000E+00  9.000E+00
      25     1     1     2     0     0  2.353873552E+02  2.324001529E+01  5.505812739E+02  6.121372759E+02  1.250000000E+02  0.00000E+00  9.000E+00
      25     1     1     2     0     0 -1.690675451E+02 -7.039190794E+00  3.053963534E+02  3.708440611E+02  1.250000000E+02  0.00000E+00  9.000E+00
      21     1     1     2   512   502 -6.631981015E+01 -1.620082450E+01  3.551029492E+02  3.616059851E+02  5.394796609E-06  0.00000E+00  9.000E+00
#rwgt            1           1   3.3361205697740724E-002           8      456886           0
</event>
<event>
      5   9999  3.79277E-02  6.09881E+01 -1.00000E+00  1.34325E-01
      21    -1     0     0   502   501  0.000000000E+00  0.000000000E+00  2.687103988E+02  2.687103988E+02  0.000000000E+00  0.00000E+00  9.000E+00
      21    -1     0     0   511   502  0.000000000E+00  0.000000000E+00 -7.812986927E+02  7.812986927E+02  0.000000000E+00  0.00000E+00  9.000E+00
      25     1     1     2     0     0 -8.027910384E+01 -2.637159661E+02 -1.646455476E+02  3.445634943E+02  1.250000000E+02  0.00000E+00  9.000E+00
      25     1     1     2     0     0  2.050184562E+01  2.758085169E+02  4.585772523E+01  3.069504759E+02  1.250000000E+02  0.00000E+00  9.000E+00
      21     1     1     2   511   501  5.977725822E+01 -1.209255081E+01 -3.938004715E+02  3.984951213E+02  5.394796609E-06  0.00000E+00  9.000E+00
#rwgt            1           1   2.5379165749449130E-002           8      457043           0
</event>
<event>
      5   9999  3.79277E-02  1.04554E+01 -1.00000E+00  1.93548E-01
      21    -1     0     0   502   501  0.000000000E+00  0.000000000E+00  1.957190503E+02  1.957190503E+02  0.000000000E+00  0.00000E+00  9.000E+00
      21    -1     0     0   501   512  0.000000000E+00  0.000000000E+00 -2.554669248E+02  2.554669248E+02  0.000000000E+00  0.00000E+00  9.000E+00
      25     1     1     2     0     0 -1.515492081E+02  9.787931783E+01 -3.796397613E+01  2.227415247E+02  1.250000000E+02  0.00000E+00  9.000E+00
      25     1     1     2     0     0  1.538635045E+02 -8.768326012E+01 -1.884169578E+01  2.175829535E+02  1.250000000E+02  0.00000E+00  9.000E+00
      21     1     1     2   502   512 -2.314296437E+00 -1.019605771E+01 -2.942202562E+00  1.086149698E+01  2.064765462E-07  0.00000E+00  9.000E+00
#rwgt            1           1  0.15698676467429049                8      457121           0
</event>
<event>
      5   9999  3.79277E-02  2.79727E+01 -1.00000E+00  1.55181E-01
      21    -1     0     0   502   501  0.000000000E+00  0.000000000E+00  7.198820792E+02  7.198820792E+02  0.000000000E+00  0.00000E+00  9.000E+00
      21    -1     0     0   501   511  0.000000000E+00  0.000000000E+00 -1.163570936E+02  1.163570936E+02  0.000000000E+00  0.00000E+00  9.000E+00
      25     1     1     2     0     0 -1.403409864E+02 -8.404384739E+01  1.638320044E+02  2.631062265E+02  1.250000000E+02  0.00000E+00  9.000E+00
      25     1     1     2     0     0  1.175971370E+02  1.003283949E+02  4.825839967E+02  5.219264195E+02  1.250000000E+02  0.00000E+00  9.000E+00
      21     1     1     2   502   511  2.274384948E+01 -1.628454750E+01 -4.289101547E+01  5.120652677E+01  1.348699152E-06  0.00000E+00  9.000E+00
#rwgt            1           1   2.2240488857439181E-002           8      457346           0
</event>
<event>
      5   9999  3.79277E-02  2.02967E+01 -1.00000E+00  1.65843E-01
      21    -1     0     0   502   501  0.000000000E+00  0.000000000E+00  2.974927192E+01  2.974927192E+01  0.000000000E+00  0.00000E+00  9.000E+00
      21    -1     0     0   512   502  0.000000000E+00  0.000000000E+00 -2.031941772E+03  2.031941772E+03  0.000000000E+00  0.00000E+00  9.000E+00
      25     1     1     2     0     0 -9.555003149E+01 -9.573806604E+00 -1.392873573E+03  1.401764337E+03  1.250000000E+02  0.00000E+00  9.000E+00
      25     1     1     2     0     0  8.931831959E+01 -9.742508558E+00 -2.115041945E+02  2.615945393E+02  1.250000000E+02  0.00000E+00  9.000E+00
      21     1     1     2   512   501  6.231711904E+00  1.931631516E+01 -3.978147328E+02  3.983321678E+02  5.394796609E-06  0.00000E+00  9.000E+00
#rwgt            1           1   4.7363642061967630E-002           8      457670           0
</event>
<event>
      5   9999  3.79277E-02  3.94925E+01 -1.00000E+00  1.45185E-01
      21    -1     0     0   502   501  0.000000000E+00  0.000000000E+00  1.677660851E+02  1.677660851E+02  0.000000000E+00  0.00000E+00  9.000E+00
      21    -1     0     0   511   502  0.000000000E+00  0.000000000E+00 -5.116844985E+02  5.116844985E+02  0.000000000E+00  0.00000E+00  9.000E+00
      25     1     1     2     0     0  9.322859636E+01  1.066385657E+02 -2.758038796E+02  3.342994689E+02  1.250000000E+02  0.00000E+00  9.000E+00
      25     1     1     2     0     0 -9.945401722E+01 -1.456372729E+02  4.892324653E+01  2.216298735E+02  1.250000000E+02  0.00000E+00  9.000E+00
      21     1     1     2   511   501  6.225420859E+00  3.899870715E+01 -1.170377803E+02  1.235212412E+02  1.348699152E-06  0.00000E+00  9.000E+00
#rwgt            1           1   5.2388055424822506E-002           8      457875           0
</event>
<event>
      5   9999  3.79277E-02  5.02712E+01 -1.00000E+00  1.38942E-01
      21    -1     0     0   502   501  0.000000000E+00  0.000000000E+00  5.942685168E+01  5.942685168E+01  0.000000000E+00  0.00000E+00  9.000E+00
      21    -1     0     0   501   512  0.000000000E+00  0.000000000E+00 -1.553229282E+03  1.553229282E+03  0.000000000E+00  0.00000E+00  9.000E+00
      25     1     1     2     0     0  6.589901130E+01  1.533216716E+02 -4.739887983E+02  5.178229384E+02  1.250000000E+02  0.00000E+00  9.000E+00
      25     1     1     2     0     0 -3.188818254E+01 -1.903412940E+02 -3.245203777E+02  3.977249551E+02  1.250000000E+02  0.00000E+00  9.000E+00
      21     1     1     2   502   512 -3.401082876E+01  3.701962243E+01 -6.952932548E+02  6.971082406E+02  7.629394531E-06  0.00000E+00  9.000E+00
#rwgt            1           1   2.9839640507426147E-002           8      458064           0
</event>
<event>
      5   9999  3.79277E-02  4.66365E+01 -1.00000E+00  1.40823E-01
      -1    -1     0     0     0   501  0.000000000E+00  0.000000000E+00  2.911015523E+02  2.911015523E+02  0.000000000E+00  0.00000E+00  9.000E+00
      21    -1     0     0   501   502  0.000000000E+00  0.000000000E+00 -2.594879374E+02  2.594879374E+02  0.000000000E+00  0.00000E+00  9.000E+00
      25     1     1     2     0     0  5.084430354E+01 -5.369813630E+01  1.397629765E+02  2.015622054E+02  1.250000000E+02  0.00000E+00  9.000E+00
      25     1     1     2     0     0 -2.097431976E+01  1.788263116E+01 -2.049154017E+02  2.416092557E+02  1.250000000E+02  0.00000E+00  9.000E+00
      -1     1     1     2     0   502 -2.986998378E+01  3.581550515E+01  9.676604017E+01  1.074180286E+02  1.348699152E-06  0.00000E+00  9.000E+00
#rwgt            1           1   3.8671040568797943E-002           8      458159           0
</event>
<event>
      5   9999 -3.79277E-02  1.79494E+01 -1.00000E+00  1.70341E-01
      21    -1     0     0   511   501  0.000000000E+00  0.000000000E+00  5.921592265E+02  5.921592265E+02  0.000000000E+00  0.00000E+00  9.000E+00
      21    -1     0     0   501   502  0.000000000E+00  0.000000000E+00 -1.995752539E+02  1.995752539E+02  0.000000000E+00  0.00000E+00  9.000E+00
      25     1     1     2     0     0 -2.059637018E+02 -7.118827505E+01  2.026238975E+02  3.227541801E+02  1.250000000E+02  0.00000E+00  9.000E+00
      25     1     1     2     0     0  1.888535392E+02  7.661268573E+01 -3.646336003E+01  2.418465206E+02  1.250000000E+02  0.00000E+00  9.000E+00
      21     1     1     2   511   502  1.711016253E+01 -5.424410681E+00  2.264234351E+02  2.271337797E+02  2.697398305E-06  0.00000E+00  9.000E+00
#rwgt            1           1  -4.7938774098984858E-002           8      458357           0
</event>
<event>
      5   9999  3.79277E-02  5.54421E+01 -1.00000E+00  1.36563E-01
      21    -1     0     0   512   501  0.000000000E+00  0.000000000E+00  5.861193630E+02  5.861193630E+02  0.000000000E+00  0.00000E+00  9.000E+00
      21    -1     0     0   501   502  0.000000000E+00  0.000000000E+00 -3.725888826E+02  3.725888826E+02  0.000000000E+00  0.00000E+00  9.000E+00
      25     1     1     2     0     0  2.497383555E+02  1.100056366E+02  2.259714813E+02  3.757107886E+02  1.250000000E+02  0.00000E+00  9.000E+00
      25     1     1     2     0     0 -2.513493406E+02 -5.458697936E+01 -2.246532835E+02  3.636623806E+02  1.250000000E+02  0.00000E+00  9.000E+00
      21     1     1     2   512   502  1.610985036E+00 -5.541865724E+01  2.122122825E+02  2.193350763E+02  2.697398305E-06  0.00000E+00  9.000E+00
#rwgt            1           1   3.8377579312701735E-002           8      458503           0
</event>
<event>
      5   9999  3.79277E-02  6.86074E+01 -1.00000E+00  1.31664E-01
      21    -1     0     0   511   501  0.000000000E+00  0.000000000E+00  1.250704738E+02  1.250704738E+02  0.000000000E+00  0.00000E+00  9.000E+00
      21    -1     0     0   501   502  0.000000000E+00  0.000000000E+00 -4.272359694E+02  4.272359694E+02  0.000000000E+00  0.00000E+00  9.000E+00
      25     1     1     2     0     0 -7.185805914E+01  9.852719911E+01 -2.157549994E+02  2.775723498E+02  1.250000000E+02  0.00000E+00  9.000E+00
      25     1     1     2     0     0  1.299912041E+02 -6.209219941E+01 -7.612023257E+01  2.053593050E+02  1.250000000E+02  0.00000E+00  9.000E+00
      21     1     1     2   511   502 -5.813314491E+01 -3.643499970E+01 -1.029026366E+01  6.937478841E+01  1.425535767E-06  0.00000E+00  9.000E+00
#rwgt            1           1   3.7757607192953603E-002           8      458725           0
</event>
<event>
      5   9999 -3.79277E-02  1.46967E+01 -1.00000E+00  1.78223E-01
      21    -1     0     0   502   501  0.000000000E+00  0.000000000E+00  2.349157921E+03  2.349157921E+03  0.000000000E+00  0.00000E+00  9.000E+00
      21    -1     0     0   501   512  0.000000000E+00  0.000000000E+00 -5.275944421E+01  5.275944421E+01  0.000000000E+00  0.00000E+00  9.000E+00
      25     1     1     2     0     0 -2.051363946E+02  4.361961779E+01  1.477040521E+03  1.497082935E+03  1.250000000E+02  0.00000E+00  9.000E+00
      25     1     1     2     0     0  1.934717395E+02 -5.255988197E+01  8.438342342E+02  8.762848110E+02  1.250000000E+02  0.00000E+00  9.000E+00
      21     1     1     2   502   512  1.166465513E+01  8.940264174E+00 -2.447627927E+01  2.854961908E+01  1.469710828E-06  0.00000E+00  9.000E+00
#rwgt            1           1 -0.17226939449524464                8      458877           0
</event>
<event>
      5   9999  3.79277E-02  1.26961E+02 -1.00000E+00  1.19338E-01
      21    -1     0     0   502   501  0.000000000E+00  0.000000000E+00  9.180053388E+02  9.180053388E+02  0.000000000E+00  0.00000E+00  9.000E+00
      -1    -1     0     0     0   502  0.000000000E+00  0.000000000E+00 -6.530011610E+02  6.530011610E+02  0.000000000E+00  0.00000E+00  9.000E+00
      25     1     1     2     0     0  1.160794433E+02  7.168196289E+01  3.895643231E+02  4.312749736E+02  1.250000000E+02  0.00000E+00  9.000E+00
      25     1     1     2     0     0 -1.938473599E+02  2.867347395E+01  4.739649451E+02  5.278889431E+02  1.250000000E+02  0.00000E+00  9.000E+00
      -1     1     1     2     0   501  7.776791666E+01 -1.003554368E+02 -5.985250904E+02  6.118425831E+02  7.629394531E-06  0.00000E+00  9.000E+00
#rwgt            1           1   4.1124555568420464E-002           8      459145           0
</event>
<event>
      5   9999  3.79277E-02  2.04704E+01 -1.00000E+00  1.65540E-01
      21    -1     0     0   502   511  0.000000000E+00  0.000000000E+00  1.230768266E+03  1.230768266E+03  0.000000000E+00  0.00000E+00  9.000E+00
      21    -1     0     0   501   502  0.000000000E+00  0.000000000E+00 -1.028793455E+02  1.028793455E+02  0.000000000E+00  0.00000E+00  9.000E+00
      25     1     1     2     0     0  1.231213104E+01  1.241235489E+02  1.410142142E+00  1.765934100E+02  1.250000000E+02  0.00000E+00  9.000E+00
      25     1     1     2     0     0  4.858742690E+00 -1.129791215E+02  4.542884833E+02  4.845522834E+02  1.250000000E+02  0.00000E+00  9.000E+00
      21     1     1     2   501   511 -1.717087373E+01 -1.114442730E+01  6.721902948E+02  6.725019179E+02  7.629394531E-06  0.00000E+00  9.000E+00
#rwgt            1           1   4.6268928436787531E-002           8      459192           0
</event>
<event>
      5   9999  3.79277E-02  3.91374E+01 -1.00000E+00  1.45430E-01
      21    -1     0     0   512   501  0.000000000E+00  0.000000000E+00  3.540817477E+02  3.540817477E+02  0.000000000E+00  0.00000E+00  9.000E+00
      21    -1     0     0   501   502  0.000000000E+00  0.000000000E+00 -1.612430352E+02  1.612430352E+02  0.000000000E+00  0.00000E+00  9.000E+00
      25     1     1     2     0     0 -9.652785115E+01 -5.464024204E+01  1.091619168E+02  1.996108869E+02  1.250000000E+02  0.00000E+00  9.000E+00
      25     1     1     2     0     0  1.272427038E+02  7.889579718E+01 -2.831198845E+01  1.970832849E+02  1.250000000E+02  0.00000E+00  9.000E+00
      21     1     1     2   512   502 -3.071485263E+01 -2.425555514E+01  1.119887841E+02  1.186306111E+02  1.348699152E-06  0.00000E+00  9.000E+00
#rwgt            1           1   4.2783236961286393E-002           8      459332           0
</event>
<event>
      5   9999  3.79277E-02  1.14576E+01 -1.00000E+00  1.89165E-01
      21    -1     0     0   502   501  0.000000000E+00  0.000000000E+00  1.819804944E+01  1.819804944E+01  0.000000000E+00  0.00000E+00  9.000E+00
      21    -1     0     0   511   502  0.000000000E+00  0.000000000E+00 -2.473367960E+03  2.473367960E+03  0.000000000E+00  0.00000E+00  9.000E+00
      25     1     1     2     0     0  8.683664881E+00  5.756282922E+01 -2.936306056E+02  3.243960818E+02  1.250000000E+02  0.00000E+00  9.000E+00
      25     1     1     2     0     0 -1.944916205E+01 -5.364098630E+01 -1.719238047E+03  1.724720292E+03  1.250000000E+02  0.00000E+00  9.000E+00
      21     1     1     2   511   501  1.076549717E+01 -3.921842926E+00 -4.423012585E+02  4.424496356E+02  7.629394531E-06  0.00000E+00  9.000E+00
#rwgt            1           1  0.12559293248752554                8      459453           0
</event>
<event>
      5   9999 -3.79277E-02  1.74385E+01 -1.00000E+00  1.71435E-01
       1    -1     0     0   502     0  0.000000000E+00  0.000000000E+00  1.818803884E+03  1.818803884E+03  0.000000000E+00  0.00000E+00  9.000E+00
      21    -1     0     0   501   502  0.000000000E+00  0.000000000E+00 -1.852938581E+02  1.852938581E+02  0.000000000E+00  0.00000E+00  9.000E+00
      25     1     1     2     0     0  2.241601112E+02  2.551063672E+02  1.354235862E+02  3.863826623E+02  1.250000000E+02  0.00000E+00  9.000E+00
      25     1     1     2     0     0 -2.415972891E+02 -2.553239955E+02  5.227587395E+02  6.422314945E+02  1.250000000E+02  0.00000E+00  9.000E+00
       1     1     1     2   501     0  1.743717783E+01  2.176283052E-01  9.753277003E+02  9.754835854E+02  1.525878906E-05  0.00000E+00  9.000E+00
#rwgt            1           1  -4.7229087888851641E-002           8      459706           0
</event>
<event>
      5   9999  3.79277E-02  1.06495E+02 -1.00000E+00  1.22611E-01
      21    -1     0     0   502   501  0.000000000E+00  0.000000000E+00  1.364671242E+02  1.364671242E+02  0.000000000E+00  0.00000E+00  9.000E+00
       2    -1     0     0   501     0  0.000000000E+00  0.000000000E+00 -3.859764436E+03  3.859764436E+03  0.000000000E+00  0.00000E+00  9.000E+00
      25     1     1     2     0     0 -1.109149490E+02  1.663054392E+02 -1.637984099E+02  2.870793341E+02  1.250000000E+02  0.00000E+00  9.000E+00
      25     1     1     2     0     0  8.025000146E+01 -2.682900744E+02 -2.438679170E+02  3.918114186E+02  1.250000000E+02  0.00000E+00  9.000E+00
       2     1     1     2   502     0  3.066494753E+01  1.019846352E+02 -3.315630985E+03  3.317340808E+03  6.103515625E-05  0.00000E+00  9.000E+00
#rwgt            1           1   2.4247393899472561E-002           8      459995           0
</event>
<event>
      5   9999  3.79277E-02  7.63397E+01 -1.00000E+00  1.29342E-01
      21    -1     0     0   502   501  0.000000000E+00  0.000000000E+00  4.375987907E+02  4.375987907E+02  0.000000000E+00  0.00000E+00  9.000E+00
      21    -1     0     0   511   502  0.000000000E+00  0.000000000E+00 -2.054869604E+02  2.054869604E+02  0.000000000E+00  0.00000E+00  9.000E+00
      25     1     1     2     0     0 -1.595592710E+02  1.021325740E+02  8.021140715E+00  2.271113435E+02  1.250000000E+02  0.00000E+00  9.000E+00
      25     1     1     2     0     0  2.295567128E+02 -7.166761158E+01  1.966350749E+02  3.348475528E+02  1.250000000E+02  0.00000E+00  9.000E+00
      21     1     1     2   511   501 -6.999744182E+01 -3.046496239E+01  2.745561459E+01  8.112685479E+01  1.581489940E-06  0.00000E+00  9.000E+00
#rwgt            1           1   2.8041593793918355E-002           8      460114           0
</event>
<event>
      5   9999  3.79277E-02  2.22979E+01 -1.00000E+00  1.62564E-01
      21    -1     0     0   502   501  0.000000000E+00  0.000000000E+00  9.597562887E+02  9.597562887E+02  0.000000000E+00  0.00000E+00  9.000E+00
      21    -1     0     0   501   512  0.000000000E+00  0.000000000E+00 -1.419713377E+02  1.419713377E+02  0.000000000E+00  0.00000E+00  9.000E+00
      25     1     1     2     0     0  2.937628347E+01 -1.652411981E+02  8.258567307E+02  8.519577215E+02  1.250000000E+02  0.00000E+00  9.000E+00
      25     1     1     2     0     0 -2.508781517E+01  1.871228595E+02 -1.347044919E+01  2.268277233E+02  1.250000000E+02  0.00000E+00  9.000E+00
      21     1     1     2   502   512 -4.288468297E+00 -2.188166143E+01  5.398669557E+00  2.294218168E+01  2.920019320E-07  0.00000E+00  9.000E+00
#rwgt            1           1   4.0886155184404110E-002           8      460396           0
</event>
<event>
      5   9999  3.79277E-02  3.12551E+01 -1.00000E+00  1.51814E-01
       2    -1     0     0   502     0  0.000000000E+00  0.000000000E+00  2.134653006E+03  2.134653006E+03  0.000000000E+00  0.00000E+00  9.000E+00
      21    -1     0     0   501   502  0.000000000E+00  0.000000000E+00 -4.245955606E+01  4.245955606E+01  0.000000000E+00  0.00000E+00  9.000E+00
      25     1     1     2     0     0  9.187030395E+01  6.844616503E+00  1.278518842E+02  2.011420041E+02  1.250000000E+02  0.00000E+00  9.000E+00
      25     1     1     2     0     0 -6.982069016E+01  1.530702326E+01  9.233835067E+02  9.345433827E+02  1.250000000E+02  0.00000E+00  9.000E+00
       2     1     1     2   501     0 -2.204961379E+01 -2.215163976E+01  1.040958059E+03  1.041427175E+03  2.157918644E-05  0.00000E+00  9.000E+00
#rwgt            1           1   3.1497815006831992E-002           8      460564           0
</event>
<event>
      5   9999  3.79277E-02  2.34674E+01 -1.00000E+00  1.60837E-01
      21    -1     0     0   502   511  0.000000000E+00  0.000000000E+00  6.746019871E+02  6.746019871E+02  0.000000000E+00  0.00000E+00  9.000E+00
      21    -1     0     0   501   502  0.000000000E+00  0.000000000E+00 -1.173127330E+02  1.173127330E+02  0.000000000E+00  0.00000E+00  9.000E+00
      25     1     1     2     0     0  1.382657765E+02 -7.279013674E+01  1.728015127E+01  2.008467889E+02  1.250000000E+02  0.00000E+00  9.000E+00
      25     1     1     2     0     0 -1.617298085E+02  7.239419840E+01  4.878661358E+02  5.338874576E+02  1.250000000E+02  0.00000E+00  9.000E+00
      21     1     1     2   501   511  2.346403197E+01  3.959383355E-01  5.214296707E+01  5.718047375E+01  0.000000000E+00  0.00000E+00  9.000E+00
#rwgt            1           1   4.1530015338163036E-002           8      460789           0
</event>
<event>
      5   9999  3.79277E-02  8.46351E+00 -1.00000E+00  2.04523E-01
      21    -1     0     0   502   512  0.000000000E+00  0.000000000E+00  7.263368476E+01  7.263368476E+01  0.000000000E+00  0.00000E+00  9.000E+00
      21    -1     0     0   501   502  0.000000000E+00  0.000000000E+00 -1.117168872E+03  1.117168872E+03  0.000000000E+00  0.00000E+00  9.000E+00
      25     1     1     2     0     0 -1.439764249E+02 -1.626373660E+02 -6.560760461E+02  7.023111149E+02  1.250000000E+02  0.00000E+00  9.000E+00
      25     1     1     2     0     0  1.356237240E+02  1.612723054E+02 -4.024370816E+02  4.711508841E+02  1.250000000E+02  0.00000E+00  9.000E+00
      21     1     1     2   501   512  8.352700858E+00  1.365060516E+00  1.397794057E+01  1.634055766E+01  7.907449699E-07  0.00000E+00  9.000E+00
#rwgt            1           1   4.7377893253953821E-002           8      461066           0
</event>
<event>
      5   9999  3.79277E-02  3.36857E+01 -1.00000E+00  1.49625E-01
      21    -1     0     0   502   501  0.000000000E+00  0.000000000E+00  2.188377237E+02  2.188377237E+02  0.000000000E+00  0.00000E+00  9.000E+00
      21    -1     0     0   501   511  0.000000000E+00  0.000000000E+00 -2.931360921E+02  2.931360921E+02  0.000000000E+00  0.00000E+00  9.000E+00
      25     1     1     2     0     0  1.183843591E+02 -1.313037059E+02  1.564438577E+01  2.170835472E+02  1.250000000E+02  0.00000E+00  9.000E+00
      25     1     1     2     0     0 -1.027146161E+02  1.014845246E+02  8.168400463E+00  1.911573275E+02  1.250000000E+02  0.00000E+00  9.000E+00
      21     1     1     2   502   511 -1.566974302E+01  2.981918133E+01 -9.811115461E+01  1.037329412E+02  1.348699152E-06  0.00000E+00  9.000E+00
#rwgt            2          11   7.9468375938718337E-004           8      461585           0
</event>
<event>
      5   9999 -3.79277E-02  7.99907E+01 -1.00000E+00  1.28352E-01
      21    -1     0     0   512   501  0.000000000E+00  0.000000000E+00  3.938615520E+01  3.938615520E+01  0.000000000E+00  0.00000E+00  9.000E+00
      21    -1     0     0   501   502  0.000000000E+00  0.000000000E+00 -2.028082928E+03  2.028082928E+03  0.000000000E+00  0.00000E+00  9.000E+00
      25     1     1     2     0     0 -1.394117653E+02 -7.976658973E+01 -8.839220921E+02  9.070510537E+02  1.250000000E+02  0.00000E+00  9.000E+00
      25     1     1     2     0     0  1.015505465E+02  9.303544700E+00 -1.052657796E+03  1.064947185E+03  1.250000000E+02  0.00000E+00  9.000E+00
      21     1     1     2   512   502  3.786121881E+01  7.046304503E+01 -5.211688416E+01  9.547084486E+01  3.234066955E-06  0.00000E+00  9.000E+00
#rwgt            1           1 -0.32572714430292832                8      461635           0
</event>
<event>
      5   9999  3.79277E-02  4.74863E+01 -1.00000E+00  1.40366E-01
      21    -1     0     0   502   501  0.000000000E+00  0.000000000E+00  2.686926615E+02  2.686926615E+02  0.000000000E+00  0.00000E+00  9.000E+00
      21    -1     0     0   511   502  0.000000000E+00  0.000000000E+00 -2.467328951E+02  2.467328951E+02  0.000000000E+00  0.00000E+00  9.000E+00
      25     1     1     2     0     0  2.081047275E+01 -2.936928879E+01 -9.582199081E+01  1.615626344E+02  1.250000000E+02  0.00000E+00  9.000E+00
      25     1     1     2     0     0 -6.829218088E+01  3.002974484E+01  2.068435311E+02  2.529325086E+02  1.250000000E+02  0.00000E+00  9.000E+00
      21     1     1     2   511   501  4.748170813E+01 -6.604560477E-01 -8.906177393E+01  1.009304136E+02  1.651812370E-06  0.00000E+00  9.000E+00
#rwgt            1           1   4.5457839934329378E-002           8      461700           0
</event>
<event>
      5   9999  3.79277E-02  3.28678E+01 -1.00000E+00  1.50336E-01
      21    -1     0     0   502   501  0.000000000E+00  0.000000000E+00  8.449138690E+02  8.449138690E+02  0.000000000E+00  0.00000E+00  9.000E+00
      21    -1     0     0   501   512  0.000000000E+00  0.000000000E+00 -7.380499570E+01  7.380499570E+01  0.000000000E+00  0.00000E+00  9.000E+00
      25     1     1     2     0     0 -1.425560453E+02  1.100730717E+02  2.367702926E+02  3.226816986E+02  1.250000000E+02  0.00000E+00  9.000E+00
      25     1     1     2     0     0  1.279623637E+02 -1.395233507E+02  4.967748149E+02  5.461239316E+02  1.250000000E+02  0.00000E+00  9.000E+00
      21     1     1     2   502   512  1.459368161E+01  2.945027899E+01  3.756376582E+01  4.991323450E+01  4.768371582E-07  0.00000E+00  9.000E+00
#rwgt            1           1   3.7161772975823890E-002           8      461885           0
</event>
<event>
      5   9999  3.79277E-02  9.39902E+01 -1.00000E+00  1.25051E-01
      21    -1     0     0   502   511  0.000000000E+00  0.000000000E+00  1.079130412E+03  1.079130412E+03  0.000000000E+00  0.00000E+00  9.000E+00
      21    -1     0     0   501   502  0.000000000E+00  0.000000000E+00 -1.762784261E+02  1.762784261E+02  0.000000000E+00  0.00000E+00  9.000E+00
      25     1     1     2     0     0 -9.919008763E+01  3.039449556E+01 -1.113010532E+02  1.969147615E+02  1.250000000E+02  0.00000E+00  9.000E+00
      25     1     1     2     0     0  1.969085612E+01 -8.053465697E+01  2.737578327E+02  3.121568705E+02  1.250000000E+02  0.00000E+00  9.000E+00
      21     1     1     2   501   511  7.949923152E+01  5.014016141E+01  7.403952065E+02  7.463372062E+02  1.078959322E-05  0.00000E+00  9.000E+00
#rwgt            1           1   4.5921891565990407E-002           8      462093           0
</event>
<event>
      5   9999  3.79277E-02  6.02436E+01 -1.00000E+00  1.34609E-01
      21    -1     0     0   502   512  0.000000000E+00  0.000000000E+00  3.571822949E+02  3.571822949E+02  0.000000000E+00  0.00000E+00  9.000E+00
      21    -1     0     0   501   502  0.000000000E+00  0.000000000E+00 -2.392193208E+02  2.392193208E+02  0.000000000E+00  0.00000E+00  9.000E+00
      25     1     1     2     0     0  7.686868549E+01 -1.178820816E+02  7.621499992E+01  2.030731547E+02  1.250000000E+02  0.00000E+00  9.000E+00
      25     1     1     2     0     0 -1.360961818E+02  1.068639451E+02 -1.026532040E+02  2.368644206E+02  1.250000000E+02  0.00000E+00  9.000E+00
      21     1     1     2   501   512  5.922749630E+01  1.101813647E+01  1.444011782E+02  1.564640403E+02  1.907348633E-06  0.00000E+00  9.000E+00
#rwgt            1           1  0.25191472615610178                8      462239           0
</event>
<event>
      5   9999  3.79277E-02  1.35464E+01 -1.00000E+00  1.81658E-01
       2    -1     0     0   502     0  0.000000000E+00  0.000000000E+00  7.918757507E+02  7.918757507E+02  0.000000000E+00  0.00000E+00  9.000E+00
      21    -1     0     0   501   502  0.000000000E+00  0.000000000E+00 -6.678027348E+01  6.678027348E+01  0.000000000E+00  0.00000E+00  9.000E+00
      25     1     1     2     0     0 -1.682973168E+02  8.152053449E+01  3.405557525E+02  4.081333176E+02  1.250000000E+02  0.00000E+00  9.000E+00
      25     1     1     2     0     0  1.689107386E+02 -6.798802602E+01  3.674353812E+02  4.287038240E+02  1.250000000E+02  0.00000E+00  9.000E+00
       2     1     1     2   501     0 -6.134217904E-01 -1.353250847E+01  1.710434346E+01  2.181888258E+01  3.371747881E-07  0.00000E+00  9.000E+00
#rwgt            1           1   4.2537167095132375E-002           8      462305           0
</event>
<event>
      5   9999  3.79277E-02  2.13331E+01 -1.00000E+00  1.64090E-01
      21    -1     0     0   511   501  0.000000000E+00  0.000000000E+00  3.669350553E+03  3.669350553E+03  0.000000000E+00  0.00000E+00  9.000E+00
      21    -1     0     0   501   502  0.000000000E+00  0.000000000E+00 -1.135454054E+01  1.135454054E+01  0.000000000E+00  0.00000E+00  9.000E+00
      25     1     1     2     0     0 -1.276171022E+02 -1.112869215E+01  1.444267723E+03  1.455315852E+03  1.250000000E+02  0.00000E+00  9.000E+00
      25     1     1     2     0     0  1.355645917E+02 -8.668727579E+00  1.496376054E+03  1.507719868E+03  1.250000000E+02  0.00000E+00  9.000E+00
      21     1     1     2   511   502 -7.947489508E+00  1.979741973E+01  7.173522355E+02  7.176693739E+02  0.000000000E+00  0.00000E+00  9.000E+00
#rwgt            1           1   2.8576060835970481E-002           8      462532           0
</event>
<event>
      5   9999  3.79277E-02  3.10133E+01 -1.00000E+00  1.52045E-01
      21    -1     0     0   512   501  0.000000000E+00  0.000000000E+00  2.724661232E+02  2.724661232E+02  0.000000000E+00  0.00000E+00  9.000E+00
      21    -1     0     0   501   502  0.000000000E+00  0.000000000E+00 -3.517692814E+02  3.517692814E+02  0.000000000E+00  0.00000E+00  9.000E+00
      25     1     1     2     0     0 -1.691928918E+02 -7.284889460E+01  1.346538903E+02  2.601727623E+02  1.250000000E+02  0.00000E+00  9.000E+00
      25     1     1     2     0     0  1.692313187E+02  1.038621665E+02 -2.305025387E+02  3.289118563E+02  1.250000000E+02  0.00000E+00  9.000E+00
      21     1     1     2   512   502 -3.842694725E-02 -3.101327189E+01  1.654549021E+01  3.515078600E+01  5.331201500E-07  0.00000E+00  9.000E+00
#rwgt            1           1   2.1179302414623853E-002           8      462684           0
</event>
<event>
      5   9999  3.79277E-02  8.44471E+01 -1.00000E+00  1.27223E-01
      21    -1     0     0   502   511  0.000000000E+00  0.000000000E+00  1.191106995E+02  1.191106995E+02  0.000000000E+00  0.00000E+00  9.000E+00
      21    -1     0     0   501   502  0.000000000E+00  0.000000000E+00 -1.117312631E+03  1.117312631E+03  0.000000000E+00  0.00000E+00  9.000E+00
      25     1     1     2     0     0  2.463161622E+02 -1.529298043E+02 -4.499371977E+02  5.496614036E+02  1.250000000E+02  0.00000E+00  9.000E+00
      25     1     1     2     0     0 -2.852549415E+02  7.799597694E+01 -4.832793614E+02  5.802048735E+02  1.250000000E+02  0.00000E+00  9.000E+00
      21     1     1     2   501   511  3.893877930E+01  7.493382736E+01 -6.498537296E+01  1.065570538E+02  9.536743164E-07  0.00000E+00  9.000E+00
#rwgt            2          11   3.7806077868028651E-003           8      462994           0
</event>
<event>
      5   9999  3.79277E-02  2.07355E+01 -1.00000E+00  1.65085E-01
      21    -1     0     0   502   501  0.000000000E+00  0.000000000E+00  2.576081155E+02  2.576081155E+02  0.000000000E+00  0.00000E+00  9.000E+00
      21    -1     0     0   501   512  0.000000000E+00  0.000000000E+00 -2.780484099E+02  2.780484099E+02  0.000000000E+00  0.00000E+00  9.000E+00
      25     1     1     2     0     0  1.171055274E+02 -3.313460730E+00 -1.665713340E+02  2.389470504E+02  1.250000000E+02  0.00000E+00  9.000E+00
      25     1     1     2     0     0 -9.740953734E+01 -3.169437835E+00  1.904498513E+02  2.477797594E+02  1.250000000E+02  0.00000E+00  9.000E+00
      21     1     1     2   502   512 -1.969599010E+01  6.482898565E+00 -4.431881166E+01  4.892971558E+01  4.768371582E-07  0.00000E+00  9.000E+00
#rwgt            1           1   3.0427075147509603E-002           8      463104           0
</event>
<event>
      5   9999  3.79277E-02  2.71880E+01 -1.00000E+00  1.56069E-01
      21    -1     0     0   502   501  0.000000000E+00  0.000000000E+00  1.103860357E+03  1.103860357E+03  0.000000000E+00  0.00000E+00  9.000E+00
      21    -1     0     0   501   511  0.000000000E+00  0.000000000E+00 -1.223611517E+02  1.223611517E+02  0.000000000E+00  0.00000E+00  9.000E+00
      25     1     1     2     0     0 -1.025534185E+00  6.825379329E+01  4.355762330E+01  1.489358874E+02  1.250000000E+02  0.00000E+00  9.000E+00
      25     1     1     2     0     0  1.709228715E+01 -9.018661911E+01  9.987274813E+02  1.010696470E+03  1.250000000E+02  0.00000E+00  9.000E+00
      21     1     1     2   502   511 -1.606675297E+01  2.193282583E+01 -6.078589974E+01  6.658915082E+01  6.743495762E-07  0.00000E+00  9.000E+00
#rwgt            1           1   4.2779340825720116E-002           8      463333           0
</event>
<event>
      5   9999  3.79277E-02  5.50563E+01 -1.00000E+00  1.36730E-01
      21    -1     0     0   502   501  0.000000000E+00  0.000000000E+00  1.195087939E+02  1.195087939E+02  0.000000000E+00  0.00000E+00  9.000E+00
      21    -1     0     0   512   502  0.000000000E+00  0.000000000E+00 -4.475720313E+02  4.475720313E+02  0.000000000E+00  0.00000E+00  9.000E+00
      25     1     1     2     0     0 -9.917848709E+01 -3.648555434E+01 -2.590048645E+02  3.063920492E+02  1.250000000E+02  0.00000E+00  9.000E+00
      25     1     1     2     0     0  4.704003905E+01  1.880011393E+01  3.815287355E+01  1.401672263E+02  1.250000000E+02  0.00000E+00  9.000E+00
      21     1     1     2   512   501  5.213844804E+01  1.768544040E+01 -1.072112466E+02  1.205215497E+02  1.348699152E-06  0.00000E+00  9.000E+00
#rwgt            1           1   3.8135941547928306E-002           8      463510           0
</event>
<event>
      5   9999  3.79277E-02  8.38226E+01 -1.00000E+00  1.27376E-01
      21    -1     0     0   502   501  0.000000000E+00  0.000000000E+00  5.018302074E+02  5.018302074E+02  0.000000000E+00  0.00000E+00  9.000E+00
       2    -1     0     0   501     0  0.000000000E+00  0.000000000E+00 -1.013253559E+03  1.013253559E+03  0.000000000E+00  0.00000E+00  9.000E+00
      25     1     1     2     0     0 -4.036885310E+01 -1.495246224E+02  1.061407749E+02  2.255617900E+02  1.250000000E+02  0.00000E+00  9.000E+00
      25     1     1     2     0     0  8.866861167E+01  8.101652454E+01  3.116053972E+02  3.565791967E+02  1.250000000E+02  0.00000E+00  9.000E+00
       2     1     1     2   502     0 -4.829975857E+01  6.850809786E+01 -9.291695240E+02  9.329427799E+02  1.525878906E-05  0.00000E+00  9.000E+00
#rwgt            1           1   3.6089767566463517E-002           8      463598           0
</event>
<event>
      5   9999  3.79277E-02  1.10209E+02 -1.00000E+00  1.21958E-01
      21    -1     0     0   511   501  0.000000000E+00  0.000000000E+00  8.581644417E+02  8.581644417E+02  0.000000000E+00  0.00000E+00  9.000E+00
      21    -1     0     0   501   502  0.000000000E+00  0.000000000E+00 -1.264052170E+02  1.264052170E+02  0.000000000E+00  0.00000E+00  9.000E+00
      25     1     1     2     0     0 -8.048275414E+01 -7.105394999E+00  1.517540341E+01  1.496103379E+02  1.250000000E+02  0.00000E+00  9.000E+00
      25     1     1     2     0     0  1.272354853E+02 -9.269584094E+01  1.329295973E+02  2.409910071E+02  1.250000000E+02  0.00000E+00  9.000E+00
      21     1     1     2   511   502 -4.675273121E+01  9.980123594E+01  5.836542239E+02  5.939683137E+02  7.629394531E-06  0.00000E+00  9.000E+00
#rwgt            1           1   4.3605086907437585E-002           8      463676           0
</event>
<event>
      5   9999  3.79277E-02  2.09782E+01 -1.00000E+00  1.64676E-01
      21    -1     0     0   502   512  0.000000000E+00  0.000000000E+00  2.945890760E+02  2.945890760E+02  0.000000000E+00  0.00000E+00  9.000E+00
      21    -1     0     0   501   502  0.000000000E+00  0.000000000E+00 -1.383730988E+03  1.383730988E+03  0.000000000E+00  0.00000E+00  9.000E+00
      25     1     1     2     0     0 -1.471624748E+02  1.582931564E+02 -6.050584889E+02  6.545489228E+02  1.250000000E+02  0.00000E+00  9.000E+00
      25     1     1     2     0     0  1.297543153E+02 -1.699996584E+02 -7.331272355E+02  7.738453396E+02  1.250000000E+02  0.00000E+00  9.000E+00
      21     1     1     2   501   512  1.740815949E+01  1.170650199E+01  2.490438120E+02  2.499258020E+02  5.394796609E-06  0.00000E+00  9.000E+00
#rwgt            1           1   3.2736723194739144E-002           8      463722           0
</event>
<event>
      5   9999  3.79277E-02  3.03063E+01 -1.00000E+00  1.52734E-01
      21    -1     0     0   511   501  0.000000000E+00  0.000000000E+00  5.067891164E+02  5.067891164E+02  0.000000000E+00  0.00000E+00  9.000E+00
      21    -1     0     0   501   502  0.000000000E+00  0.000000000E+00 -3.883400013E+02  3.883400013E+02  0.000000000E+00  0.00000E+00  9.000E+00
      25     1     1     2     0     0 -2.016914125E+02 -1.532759018E+02 -2.699330208E+02  3.907195460E+02  1.250000000E+02  0.00000E+00  9.000E+00
      25     1     1     2     0     0  2.254136949E+02  1.344152645E+02  3.616484247E+02  4.639971770E+02  1.250000000E+02  0.00000E+00  9.000E+00
      21     1     1     2   511   502 -2.372228246E+01  1.886063731E+01  2.673371118E+01  4.041239461E+01  5.840038640E-07  0.00000E+00  9.000E+00
#rwgt            1           1   2.6506652356481648E-002           8      463862           0
</event>
<event>
      5   9999  3.79277E-02  1.18785E+01 -1.00000E+00  1.87494E-01
      21    -1     0     0   502   512  0.000000000E+00  0.000000000E+00  6.620030408E+02  6.620030408E+02  0.000000000E+00  0.00000E+00  9.000E+00
      21    -1     0     0   501   502  0.000000000E+00  0.000000000E+00 -7.278895584E+01  7.278895584E+01  0.000000000E+00  0.00000E+00  9.000E+00
      25     1     1     2     0     0 -1.069083523E+02 -8.033210217E+01  4.010332275E+02  4.408347673E+02  1.250000000E+02  0.00000E+00  9.000E+00
      25     1     1     2     0     0  1.055823895E+02  9.213634683E+01  1.158168304E+02  2.206247619E+02  1.250000000E+02  0.00000E+00  9.000E+00
      21     1     1     2   501   512  1.325962803E+00 -1.180424465E+01  7.236402703E+01  7.333246741E+01  0.000000000E+00  0.00000E+00  9.000E+00
#rwgt            1           1   4.5112679076212019E-002           8      464057           0
</event>
<event>
      5   9999  3.79277E-02  2.00147E+02 -1.00000E+00  1.11636E-01
      21    -1     0     0   502   501  0.000000000E+00  0.000000000E+00  9.385841656E+01  9.385841656E+01  0.000000000E+00  0.00000E+00  9.000E+00
      21    -1     0     0   511   502  0.000000000E+00  0.000000000E+00 -1.423565732E+03  1.423565732E+03  0.000000000E+00  0.00000E+00  9.000E+00
      25     1     1     2     0     0  1.672318340E+02 -1.265833887E+02 -1.417831377E+02  2.823425203E+02  1.250000000E+02  0.00000E+00  9.000E+00
      25     1     1     2     0     0  8.991224735E+00  3.169172397E+01 -3.371591421E+02  3.610907013E+02  1.250000000E+02  0.00000E+00  9.000E+00
      21     1     1     2   511   501 -1.762230588E+02  9.489166476E+01 -8.507650357E+02  8.739909270E+02  1.078959322E-05  0.00000E+00  9.000E+00
#rwgt            1           1   4.9353598858460218E-002           8      464300           0
</event>
<event>
      5   9999  3.79277E-02  3.46520E+01 -1.00000E+00  1.48815E-01
      21    -1     0     0   502   512  0.000000000E+00  0.000000000E+00  3.499755500E+02  3.499755500E+02  0.000000000E+00  0.00000E+00  9.000E+00
      21    -1     0     0   501   502  0.000000000E+00  0.000000000E+00 -1.263408666E+02  1.263408666E+02  0.000000000E+00  0.00000E+00  9.000E+00
      25     1     1     2     0     0  1.239217695E+02 -3.465828315E+01  6.972330752E+01  1.924685459E+02  1.250000000E+02  0.00000E+00  9.000E+00
      25     1     1     2     0     0 -1.427038972E+02  6.377862124E+01  1.115880068E+02  2.291484193E+02  1.250000000E+02  0.00000E+00  9.000E+00
      21     1     1     2   501   512  1.878212767E+01 -2.912033809E+01  4.232336905E+01  5.469945135E+01  6.743495762E-07  0.00000E+00  9.000E+00
#rwgt            1           1   2.3029108689501577E-002           8      464515           0
</event>
<event>
      5   9999  3.79277E-02  6.20475E+00 -1.00000E+00  2.23232E-01
      21    -1     0     0   502   501  0.000000000E+00  0.000000000E+00  5.795972530E+01  5.795972530E+01  0.000000000E+00  0.00000E+00  9.000E+00
      21    -1     0     0   501   511  0.000000000E+00  0.000000000E+00 -8.227727583E+02  8.227727583E+02  0.000000000E+00  0.00000E+00  9.000E+00
      25     1     1     2     0     0 -8.751675756E+01  2.101029031E+01 -6.416323765E+02  6.598618960E+02  1.250000000E+02  0.00000E+00  9.000E+00
      25     1     1     2     0     0  9.342397509E+01 -2.290864067E+01 -7.927499523E+01  1.765286657E+02  1.250000000E+02  0.00000E+00  9.000E+00
      21     1     1     2   502   511 -5.907217523E+00  1.898350362E+00 -4.390566123E+01  4.434192193E+01  4.768371582E-07  0.00000E+00  9.000E+00
#rwgt            1           1   2.5540645143497472E-002           8      464681           0
</event>
<event>
      5   9999  3.79277E-02  2.57091E+01 -1.00000E+00  1.57846E-01
      21    -1     0     0   502   501  0.000000000E+00  0.000000000E+00  7.499600879E+01  7.499600879E+01  0.000000000E+00  0.00000E+00  9.000E+00
      21    -1     0     0   501   512  0.000000000E+00  0.000000000E+00 -5.059814127E+02  5.059814127E+02  0.000000000E+00  0.00000E+00  9.000E+00
      25     1     1     2     0     0 -4.986757437E-01 -9.294044668E+01 -1.069708586E+02  1.889601542E+02  1.250000000E+02  0.00000E+00  9.000E+00
      25     1     1     2     0     0 -2.454450058E+01  9.875404400E+01 -1.639883215E+02  2.299390426E+02  1.250000000E+02  0.00000E+00  9.000E+00
      21     1     1     2   502   512  2.504317633E+01 -5.813597321E+00 -1.600262239E+02  1.620782247E+02  2.697398305E-06  0.00000E+00  9.000E+00
#rwgt            1           1   4.3477307764931958E-002           8      465221           0
</event>
<event>
      5   9999  3.79277E-02  8.21801E+01 -1.00000E+00  1.27787E-01
      21    -1     0     0   502   501  0.000000000E+00  0.000000000E+00  1.075337066E+03  1.075337066E+03  0.000000000E+00  0.00000E+00  9.000E+00
      21    -1     0     0   501   511  0.000000000E+00  0.000000000E+00 -7.332685350E+01  7.332685350E+01  0.000000000E+00  0.00000E+00  9.000E+00
      25     1     1     2     0     0 -2.239673259E+01  1.580036497E+02  2.266543753E+02  3.040788924E+02  1.250000000E+02  0.00000E+00  9.000E+00
      25     1     1     2     0     0 -5.361961635E+01 -1.892298927E+02  6.793535766E+02  7.182125713E+02  1.250000000E+02  0.00000E+00  9.000E+00
      21     1     1     2   502   511  7.601634894E+01  3.122624306E+01  9.600226075E+01  1.263724560E+02  2.336015456E-06  0.00000E+00  9.000E+00
#rwgt            1           1   3.5616937586900849E-002           8      465438           0
</event>
<event>
      5   9999  3.79277E-02  3.94597E+01 -1.00000E+00  1.45207E-01
       3    -1     0     0   502     0  0.000000000E+00  0.000000000E+00  1.921013932E+03  1.921013932E+03  0.000000000E+00  0.00000E+00  9.000E+00
      21    -1     0     0   501   502  0.000000000E+00  0.000000000E+00 -4.393709757E+01  4.393709757E+01  0.000000000E+00  0.00000E+00  9.000E+00
      25     1     1     2     0     0 -4.356723202E+01 -1.461573375E+02  6.237082511E+02  6.541384055E+02  1.250000000E+02  0.00000E+00  9.000E+00
      25     1     1     2     0     0  5.730449054E+00  1.349572222E+02  2.706147415E+02  3.272669066E+02  1.250000000E+02  0.00000E+00  9.000E+00
       3     1     1     2   501     0  3.783678296E+01  1.120011535E+01  9.827538417E+02  9.835457173E+02  0.000000000E+00  0.00000E+00  9.000E+00
#rwgt            1           1   3.5481978714577520E-002           8      465517           0
</event>
<event>
      5   9999  3.79277E-02  9.93329E+01 -1.00000E+00  1.23959E-01
      21    -1     0     0   502   501  0.000000000E+00  0.000000000E+00  1.648935339E+03  1.648935339E+03  0.000000000E+00  0.00000E+00  9.000E+00
      21    -1     0     0   501   511  0.000000000E+00  0.000000000E+00 -4.820110244E+01  4.820110244E+01  0.000000000E+00  0.00000E+00  9.000E+00
      25     1     1     2     0     0  1.152333021E+02  1.655731757E+02  6.668246572E+02  7.077946834E+02  1.250000000E+02  0.00000E+00  9.000E+00
      25     1     1     2     0     0 -1.671276339E+01 -1.528949630E+02  7.899781843E+02  8.144609983E+02  1.250000000E+02  0.00000E+00  9.000E+00
      21     1     1     2   502   511 -9.852053874E+01 -1.267821270E+01  1.439313954E+02  1.748807600E+02  3.814697266E-06  0.00000E+00  9.000E+00
#rwgt            1           1   5.1671948259578729E-002           8      465666           0
</event>
<event>
      5   9999  3.79277E-02  4.65194E+01 -1.00000E+00  1.40887E-01
      21    -1     0     0   512   501  0.000000000E+00  0.000000000E+00  5.169229511E+02  5.169229511E+02  0.000000000E+00  0.00000E+00  9.000E+00
      21    -1     0     0   501   502  0.000000000E+00  0.000000000E+00 -2.116999797E+02  2.116999797E+02  0.000000000E+00  0.00000E+00  9.000E+00
      25     1     1     2     0     0 -2.048612968E+01 -2.882786988E+01 -1.698536733E+02  2.138363812E+02  1.250000000E+02  0.00000E+00  9.000E+00
      25     1     1     2     0     0  5.918316250E+01  5.464641662E+01  3.196566135E+02  3.525538656E+02  1.250000000E+02  0.00000E+00  9.000E+00
      21     1     1     2   512   502 -3.869703282E+01 -2.581854675E+01  1.554200311E+02  1.622326841E+02  1.907348633E-06  0.00000E+00  9.000E+00
#rwgt            1           1   5.1712191024630261E-002           8      465802           0
</event>
<event>
      5   9999 -3.79277E-02  3.12655E+01 -1.00000E+00  1.51804E-01
      21    -1     0     0   502   501  0.000000000E+00  0.000000000E+00  4.111185548E+01  4.111185548E+01  0.000000000E+00  0.00000E+00  9.000E+00
       1    -1     0     0   501     0  0.000000000E+00  0.000000000E+00 -2.577960684E+03  2.577960684E+03  0.000000000E+00  0.00000E+00  9.000E+00
      25     1     1     2     0     0 -2.079134835E+02 -1.112694217E+02 -7.020207278E+02  7.510439422E+02  1.250000000E+02  0.00000E+00  9.000E+00
      25     1     1     2     0     0  1.895543340E+02  8.596183434E+01 -8.853509334E+02  9.180367954E+02  1.250000000E+02  0.00000E+00  9.000E+00
       1     1     1     2   502     0  1.835914953E+01  2.530758739E+01 -9.494771673E+02  9.499918019E+02  1.078959322E-05  0.00000E+00  9.000E+00
#rwgt            1           1  -5.4680747757067043E-002           8      465888           0
</event>
<event>
      5   9999  3.79277E-02  5.95796E+01 -1.00000E+00  1.34867E-01
      21    -1     0     0   502   501  0.000000000E+00  0.000000000E+00  1.925052561E+02  1.925052561E+02  0.000000000E+00  0.00000E+00  9.000E+00
      21    -1     0     0   511   502  0.000000000E+00  0.000000000E+00 -4.019822077E+02  4.019822077E+02  0.000000000E+00  0.00000E+00  9.000E+00
      25     1     1     2     0     0  1.697960930E+02  1.111551568E+02 -1.804949864E+02  2.989809730E+02  1.250000000E+02  0.00000E+00  9.000E+00
      25     1     1     2     0     0 -1.548927170E+02 -5.346967623E+01  3.391768990E+01  2.088687859E+02  1.250000000E+02  0.00000E+00  9.000E+00
      21     1     1     2   511   501 -1.490337597E+01 -5.768548060E+01 -6.289965511E+01  8.663770484E+01  1.348699152E-06  0.00000E+00  9.000E+00
#rwgt            2          11   2.9156122130897556E-003           8      465975           0
</event>
<event>
      5   9999 -3.79277E-02  2.75965E+01 -1.00000E+00  1.55602E-01
      21    -1     0     0   512   501  0.000000000E+00  0.000000000E+00  5.254019762E+02  5.254019762E+02  0.000000000E+00  0.00000E+00  9.000E+00
      21    -1     0     0   501   502  0.000000000E+00  0.000000000E+00 -1.182862298E+02  1.182862298E+02  0.000000000E+00  0.00000E+00  9.000E+00
      25     1     1     2     0     0  9.500771198E+01 -1.890690224E+02  1.995789872E+02  3.165917445E+02  1.250000000E+02  0.00000E+00  9.000E+00
      25     1     1     2     0     0 -9.013808723E+01  1.619055478E+02  1.716614663E+02  2.818349520E+02  1.250000000E+02  0.00000E+00  9.000E+00
      21     1     1     2   512   502 -4.869624751E+00  2.716347463E+01  3.587529290E+01  4.526150948E+01  8.259061849E-07  0.00000E+00  9.000E+00
#rwgt            1           1  -8.3673130372303672E-002           8      465995           0
</event>
<event>
      5   9999  3.79277E-02  2.28886E+01 -1.00000E+00  1.61676E-01
      21    -1     0     0   502   511  0.000000000E+00  0.000000000E+00  8.794232020E+02  8.794232020E+02  0.000000000E+00  0.00000E+00  9.000E+00
      21    -1     0     0   501   502  0.000000000E+00  0.000000000E+00 -5.626547529E+02  5.626547529E+02  0.000000000E+00  0.00000E+00  9.000E+00
      25     1     1     2     0     0  3.712727151E+02  2.845737757E+02 -8.334429842E+00  4.842727801E+02  1.250000000E+02  0.00000E+00  9.000E+00
      25     1     1     2     0     0 -3.787335722E+02 -2.629352773E+02 -1.355680490E+02  4.965659822E+02  1.250000000E+02  0.00000E+00  9.000E+00
      21     1     1     2   501   511  7.460857064E+00 -2.163849841E+01  4.606709279E+02  4.612391926E+02  7.629394531E-06  0.00000E+00  9.000E+00
#rwgt            1           1  0.12827155243366692                8      466219           0
</event>
<event>
      5   9999  3.79277E-02  2.87245E+01 -1.00000E+00  1.54362E-01
      21    -1     0     0   502   512  0.000000000E+00  0.000000000E+00  2.630066898E+02  2.630066898E+02  0.000000000E+00  0.00000E+00  9.000E+00
      21    -1     0     0   501   502  0.000000000E+00  0.000000000E+00 -1.392788692E+02  1.392788692E+02  0.000000000E+00  0.00000E+00  9.000E+00
      25     1     1     2     0     0  1.090693282E+02  1.399055570E+01 -2.567524288E+01  1.684519875E+02  1.250000000E+02  0.00000E+00  9.000E+00
      25     1     1     2     0     0 -8.180660405E+01 -2.303701765E+01  1.254836485E+02  1.964539913E+02  1.250000000E+02  0.00000E+00  9.000E+00
      21     1     1     2   501   512 -2.726272416E+01  9.046461958E+00  2.391941499E+01  3.737958020E+01  3.371747881E-07  0.00000E+00  9.000E+00
#rwgt            1           1   4.9900378125783719E-002           8      466529           0
</event>
<event>
      5   9999  3.79277E-02  1.10785E+01 -1.00000E+00  1.90752E-01
      21    -1     0     0   502   511  0.000000000E+00  0.000000000E+00  7.870819125E+01  7.870819125E+01  0.000000000E+00  0.00000E+00  9.000E+00
      21    -1     0     0   501   502  0.000000000E+00  0.000000000E+00 -7.723926239E+02  7.723926239E+02  0.000000000E+00  0.00000E+00  9.000E+00
      25     1     1     2     0     0  1.502127821E+02  1.413848391E+02 -3.752381066E+02  4.460741971E+02  1.250000000E+02  0.00000E+00  9.000E+00
      25     1     1     2     0     0 -1.407317806E+02 -1.471157437E+02 -3.080771625E+02  3.898525544E+02  1.250000000E+02  0.00000E+00  9.000E+00
      21     1     1     2   501   511 -9.481001484E+00  5.730904619E+00 -1.036916356E+01  1.517406372E+01  2.064765462E-07  0.00000E+00  9.000E+00
#rwgt            1           1   4.0721427428391438E-002           8      466677           0
</event>
<event>
      5   9999  3.79277E-02  4.30290E+01 -1.00000E+00  1.42901E-01
      21    -1     0     0   502   501  0.000000000E+00  0.000000000E+00  2.601164237E+02  2.601164237E+02  0.000000000E+00  0.00000E+00  9.000E+00
      21    -1     0     0   512   502  0.000000000E+00  0.000000000E+00 -3.848289384E+02  3.848289384E+02  0.000000000E+00  0.00000E+00  9.000E+00
      25     1     1     2     0     0 -1.507295799E+02 -7.148408665E+01  1.489422438E+02  2.561994787E+02  1.250000000E+02  0.00000E+00  9.000E+00
      25     1     1     2     0     0  1.883394576E+02  5.057981631E+01 -2.443069116E+02  3.366614564E+02  1.250000000E+02  0.00000E+00  9.000E+00
      21     1     1     2   512   501 -3.760987773E+01  2.090427033E+01 -2.934784692E+01  5.208442704E+01  5.840038640E-07  0.00000E+00  9.000E+00
#rwgt            1           1   2.2684966084035686E-002           8      466890           0
</event>
<event>
      5   9999  3.79277E-02  9.32050E+01 -1.00000E+00  1.25218E-01
      21    -1     0     0   502   501  0.000000000E+00  0.000000000E+00  9.345745991E+01  9.345745991E+01  0.000000000E+00  0.00000E+00  9.000E+00
      21    -1     0     0   501   511  0.000000000E+00  0.000000000E+00 -2.406719798E+03  2.406719798E+03  0.000000000E+00  0.00000E+00  9.000E+00
      25     1     1     2     0     0 -3.064237951E+00 -3.867255504E+01 -2.971829757E+02  3.247270810E+02  1.250000000E+02  0.00000E+00  9.000E+00
      25     1     1     2     0     0 -5.235248173E+01  1.136135483E+02 -2.087711828E+01  1.780721055E+02  1.250000000E+02  0.00000E+00  9.000E+00
      21     1     1     2   502   511  5.541671968E+01 -7.494099326E+01 -1.995202244E+03  1.997378071E+03  2.157918644E-05  0.00000E+00  9.000E+00
#rwgt            1           1   4.8510082987471503E-002           8      467122           0
</event>
<event>
      5   9999  3.79277E-02  3.61696E+01 -1.00000E+00  1.47605E-01
      21    -1     0     0   502   512  0.000000000E+00  0.000000000E+00  4.542068881E+01  4.542068881E+01  0.000000000E+00  0.00000E+00  9.000E+00
      21    -1     0     0   501   502  0.000000000E+00  0.000000000E+00 -1.512782077E+03  1.512782077E+03  0.000000000E+00  0.00000E+00  9.000E+00
      25     1     1     2     0     0 -3.759498179E+01 -6.869019341E+01 -1.217029689E+02  1.912284967E+02  1.250000000E+02  0.00000E+00  9.000E+00
      25     1     1     2     0     0  2.537433563E+01  1.027327252E+02 -1.291534121E+03  1.301876820E+03  1.250000000E+02  0.00000E+00  9.000E+00
      21     1     1     2   501   512  1.222064616E+01 -3.404253179E+01 -5.412429851E+01  6.509744889E+01  9.536743164E-07  0.00000E+00  9.000E+00
#rwgt            1           1   4.3605980059866739E-002           8      467274           0
</event>
<event>
      5   9999  3.79277E-02  8.86162E+01 -1.00000E+00  1.26236E-01
      21    -1     0     0   502   501  0.000000000E+00  0.000000000E+00  1.232882945E+02  1.232882945E+02  0.000000000E+00  0.00000E+00  9.000E+00
      21    -1     0     0   501   511  0.000000000E+00  0.000000000E+00 -7.068315637E+02  7.068315637E+02  0.000000000E+00  0.00000E+00  9.000E+00
      25     1     1     2     0     0  4.937766006E+01 -1.808455130E+02 -2.010958926E+02  3.020063094E+02  1.250000000E+02  0.00000E+00  9.000E+00
      25     1     1     2     0     0 -1.376041840E+02  1.725445834E+02 -1.921774675E+02  3.182196155E+02  1.250000000E+02  0.00000E+00  9.000E+00
      21     1     1     2   502   511  8.822652389E+01  8.300929638E+00 -1.902699091E+02  2.098939334E+02  3.814697266E-06  0.00000E+00  9.000E+00
#rwgt            1           1   3.0945942854747520E-002           8      467456           0
</event>
<event>
      5   9999  3.79277E-02  6.97537E+01 -1.00000E+00  1.31298E-01
      21    -1     0     0   502   512  0.000000000E+00  0.000000000E+00  1.187805626E+02  1.187805626E+02  0.000000000E+00  0.00000E+00  9.000E+00
      21    -1     0     0   501   502  0.000000000E+00  0.000000000E+00 -7.896517873E+02  7.896517873E+02  0.000000000E+00  0.00000E+00  9.000E+00
      25     1     1     2     0     0  6.131351684E+01 -1.005260083E+02 -6.466318018E+02  6.690459722E+02  1.250000000E+02  0.00000E+00  9.000E+00
      25     1     1     2     0     0 -9.064730269E+01  3.724013515E+01 -4.761685278E+01  1.658195580E+02  1.250000000E+02  0.00000E+00  9.000E+00
      21     1     1     2   501   512  2.933378585E+01  6.328587313E+01  2.337742992E+01  7.356681970E+01  7.539457465E-07  0.00000E+00  9.000E+00
#rwgt            1           1   4.4509369554981512E-002           8      467556           0
</event>
<event>
      5   9999  3.79277E-02  6.26629E+01 -1.00000E+00  1.33703E-01
      21    -1     0     0   502   511  0.000000000E+00  0.000000000E+00  2.065271662E+02  2.065271662E+02  0.000000000E+00  0.00000E+00  9.000E+00
      21    -1     0     0   501   502  0.000000000E+00  0.000000000E+00 -3.585864337E+02  3.585864337E+02  0.000000000E+00  0.00000E+00  9.000E+00
      25     1     1     2     0     0 -1.064468946E+02  9.373265616E+01  3.664452972E+01  1.925735542E+02  1.250000000E+02  0.00000E+00  9.000E+00
      25     1     1     2     0     0  1.070124527E+02 -1.563929934E+02 -2.070421587E+02  3.072489038E+02  1.250000000E+02  0.00000E+00  9.000E+00
      21     1     1     2   501   511 -5.655581294E-01  6.266033719E+01  1.833836146E+01  6.529114193E+01  1.768159506E-06  0.00000E+00  9.000E+00
#rwgt            1           1   2.6466863135050697E-002           8      467654           0
</event>
<event>
      5   9999  3.79277E-02  5.45214E+01 -1.00000E+00  1.36964E-01
      21    -1     0     0   512   501  0.000000000E+00  0.000000000E+00  1.001114163E+02  1.001114163E+02  0.000000000E+00  0.00000E+00  9.000E+00
      21    -1     0     0   501   502  0.000000000E+00  0.000000000E+00 -4.994986645E+02  4.994986645E+02  0.000000000E+00  0.00000E+00  9.000E+00
      25     1     1     2     0     0  3.987872003E+01 -8.489798315E+01 -3.167064360E+02  3.531656077E+02  1.250000000E+02  0.00000E+00  9.000E+00
      25     1     1     2     0     0 -9.435083105E+01  8.257975109E+01 -7.056172668E+01  1.905923710E+02  1.250000000E+02  0.00000E+00  9.000E+00
      21     1     1     2   512   502  5.447211102E+01  2.318232059E+00 -1.211908559E+01  5.585210214E+01  6.951036328E-07  0.00000E+00  9.000E+00
#rwgt            1           1   5.3463134828137616E-002           8      467799           0
</event>
<event>
      5   9999  3.79277E-02  1.53217E+01 -1.00000E+00  1.76520E-01
      21    -1     0     0   502   511  0.000000000E+00  0.000000000E+00  2.605019703E+02  2.605019703E+02  0.000000000E+00  0.00000E+00  9.000E+00
      21    -1     0     0   501   502  0.000000000E+00  0.000000000E+00 -3.897586809E+02  3.897586809E+02  0.000000000E+00  0.00000E+00  9.000E+00
      25     1     1     2     0     0  7.513290360E+01 -9.233514371E+01  1.978757258E+02  2.625843385E+02  1.250000000E+02  0.00000E+00  9.000E+00
      25     1     1     2     0     0 -5.981317119E+01  9.209022487E+01 -3.322007441E+02  3.715380994E+02  1.250000000E+02  0.00000E+00  9.000E+00
      21     1     1     2   501   511 -1.531973241E+01  2.449188482E-01  5.068307595E+00  1.613821329E+01  2.149076030E-07  0.00000E+00  9.000E+00
#rwgt            1           1   4.3430258173851329E-002           8      467887           0
</event>
<event>
      5   9999  3.79277E-02  2.02353E+01 -1.00000E+00  1.65951E-01
      21    -1     0     0   512   501  0.000000000E+00  0.000000000E+00  9.475737651E+02  9.475737651E+02  0.000000000E+00  0.00000E+00  9.000E+00
      21    -1     0     0   501   502  0.000000000E+00  0.000000000E+00 -4.233962812E+01  4.233962812E+01  0.000000000E+00  0.00000E+00  9.000E+00
      25     1     1     2     0     0 -9.677072432E+01  8.132801755E+01  2.761994733E+02  3.284660844E+02  1.250000000E+02  0.00000E+00  9.000E+00
      25     1     1     2     0     0  9.062291227E+01 -1.006067944E+02  5.678886182E+02  5.970399668E+02  1.250000000E+02  0.00000E+00  9.000E+00
      21     1     1     2   512   502  6.147812047E+00  1.927877684E+01  6.114604547E+01  6.440734202E+01  6.743495762E-07  0.00000E+00  9.000E+00
#rwgt            1           1   3.4379653761066845E-002           8      468151           0
</event>
<event>
      5   9999  3.79277E-02  8.04386E+01 -1.00000E+00  1.28235E-01
      21    -1     0     0   502   501  0.000000000E+00  0.000000000E+00  9.200260682E+01  9.200260682E+01  0.000000000E+00  0.00000E+00  9.000E+00
      21    -1     0     0   501   511  0.000000000E+00  0.000000000E+00 -1.133892417E+03  1.133892417E+03  0.000000000E+00  0.00000E+00  9.000E+00
      25     1     1     2     0     0  7.922129818E+00  4.428087211E+01  1.263368495E+01  1.334472397E+02  1.250000000E+02  0.00000E+00  9.000E+00
      25     1     1     2     0     0 -3.081769724E+01 -1.213922142E+02 -4.662117678E+02  4.986624235E+02  1.250000000E+02  0.00000E+00  9.000E+00
      21     1     1     2   502   511  2.289556743E+01  7.711134209E+01 -5.883117276E+02  5.937853609E+02  1.078959322E-05  0.00000E+00  9.000E+00
#rwgt            1           1   3.8314006520088574E-002           8      468286           0
</event>
<event>
      5   9999  3.79277E-02  1.17345E+02 -1.00000E+00  1.20782E-01
      21    -1     0     0   512   501  0.000000000E+00  0.000000000E+00  5.824165077E+02  5.824165077E+02  0.000000000E+00  0.00000E+00  9.000E+00
      21    -1     0     0   501   502  0.000000000E+00  0.000000000E+00 -1.187846319E+02  1.187846319E+02  0.000000000E+00  0.00000E+00  9.000E+00
      25     1     1     2     0     0 -1.393260107E+02  1.682953060E+00  3.085818706E+02  3.609187450E+02  1.250000000E+02  0.00000E+00  9.000E+00
      25     1     1     2     0     0  4.885423614E+01 -7.641421937E+01  1.148782443E+01  1.548639384E+02  1.250000000E+02  0.00000E+00  9.000E+00
      21     1     1     2   512   502  9.047177452E+01  7.473126631E+01  1.435621807E+02  1.854184562E+02  1.907348633E-06  0.00000E+00  9.000E+00
#rwgt            1           1   3.7770180244820782E-002           8      468379           0
</event>
<event>
      5   9999  3.79277E-02  3.29996E+01 -1.00000E+00  1.50220E-01
      21    -1     0     0   502   501  0.000000000E+00  0.000000000E+00  5.964348032E+02  5.964348032E+02  0.000000000E+00  0.00000E+00  9.000E+00
      21    -1     0     0   501   511  0.000000000E+00  0.000000000E+00 -2.159456765E+02  2.159456765E+02  0.000000000E+00  0.00000E+00  9.000E+00
      25     1     1     2     0     0 -5.875673866E+00 -5.519238893E+01 -1.637230763E+02  2.133330004E+02  1.250000000E+02  0.00000E+00  9.000E+00
      25     1     1     2     0     0  2.981575231E+01  7.790466728E+01  5.457005459E+02  5.660143126E+02  1.250000000E+02  0.00000E+00  9.000E+00
      21     1     1     2   502   511 -2.394007845E+01 -2.271227834E+01 -1.488342792E+00  3.303316678E+01  3.358551165E-07  0.00000E+00  9.000E+00
#rwgt            1           1   5.0602604600221382E-002           8      468521           0
</event>
<event>
      5   9999  3.79277E-02  1.53313E+01 -1.00000E+00  1.76494E-01
      21    -1     0     0   502   501  0.000000000E+00  0.000000000E+00  2.597390143E+02  2.597390143E+02  0.000000000E+00  0.00000E+00  9.000E+00
      21    -1     0     0   512   502  0.000000000E+00  0.000000000E+00 -1.370375664E+02  1.370375664E+02  0.000000000E+00  0.00000E+00  9.000E+00
      25     1     1     2     0     0 -3.727989593E+01  7.125318750E+00  1.721840403E+02  2.161316833E+02  1.250000000E+02  0.00000E+00  9.000E+00
      25     1     1     2     0     0  2.823035379E+01  5.250218610E+00  6.116177027E-01  1.282571314E+02  1.250000000E+02  0.00000E+00  9.000E+00
      21     1     1     2   512   501  9.049542140E+00 -1.237553736E+01 -5.009421011E+01  5.238776598E+01  6.743495762E-07  0.00000E+00  9.000E+00
#rwgt            1           1   4.6573231771279519E-002           8      468735           0
</event>
<event>
      5   9999  3.79277E-02  2.91045E+01 -1.00000E+00  1.53960E-01
       2    -1     0     0   502     0  0.000000000E+00  0.000000000E+00  4.490957331E+02  4.490957331E+02  0.000000000E+00  0.00000E+00  9.000E+00
      21    -1     0     0   501   502  0.000000000E+00  0.000000000E+00 -9.978421937E+01  9.978421937E+01  0.000000000E+00  0.00000E+00  9.000E+00
      25     1     1     2     0     0  9.357971879E+01  5.250033213E+01  3.191803404E+01  1.678011011E+02  1.250000000E+02  0.00000E+00  9.000E+00
      25     1     1     2     0     0 -1.028234634E+02 -8.009790581E+01  2.862220527E+02  3.384322718E+02  1.250000000E+02  0.00000E+00  9.000E+00
       2     1     1     2   501     0  9.243744589E+00  2.759757367E+01  3.117142696E+01  4.264657953E+01  4.768371582E-07  0.00000E+00  9.000E+00
#rwgt            2          18   2.4935261454923569E-005           8      468926           0
</event>
<event>
      5   9999  3.79277E-02  2.26389E+01 -1.00000E+00  1.62047E-01
      21    -1     0     0   502   501  0.000000000E+00  0.000000000E+00  2.250927653E+03  2.250927653E+03  0.000000000E+00  0.00000E+00  9.000E+00
      21    -1     0     0   501   511  0.000000000E+00  0.000000000E+00 -2.066490137E+01  2.066490137E+01  0.000000000E+00  0.00000E+00  9.000E+00
      25     1     1     2     0     0  5.105084437E+01  1.578197029E+02  1.062156694E+03  1.082273113E+03  1.250000000E+02  0.00000E+00  9.000E+00
      25     1     1     2     0     0 -2.864386787E+01 -1.545875306E+02  1.061609448E+03  1.080443148E+03  1.250000000E+02  0.00000E+00  9.000E+00
      21     1     1     2   502   511 -2.240697651E+01 -3.232172309E+00  1.064966094E+02  1.088762938E+02  1.907348633E-06  0.00000E+00  9.000E+00
#rwgt            1           1   7.2741006752653131E-002           8      468945           0
</event>
<event>
      5   9999  3.79277E-02  4.33852E+01 -1.00000E+00  1.42685E-01
      21    -1     0     0   502   512  0.000000000E+00  0.000000000E+00  1.197770347E+03  1.197770347E+03  0.000000000E+00  0.00000E+00  9.000E+00
      21    -1     0     0   501   502  0.000000000E+00  0.000000000E+00 -7.477911940E+01  7.477911940E+01  0.000000000E+00  0.00000E+00  9.000E+00
      25     1     1     2     0     0 -1.568958282E+02  8.138640429E+01  1.301538422E+02  2.525966555E+02  1.250000000E+02  0.00000E+00  9.000E+00
      25     1     1     2     0     0  1.328856148E+02 -4.525073965E+01  8.563332591E+02  8.767199477E+02  1.250000000E+02  0.00000E+00  9.000E+00
      21     1     1     2   501   512  2.401021342E+01 -3.613566464E+01  1.365041260E+02  1.432328629E+02  2.697398305E-06  0.00000E+00  9.000E+00
#rwgt            1           1   4.1504109800744433E-002           8      469096           0
</event>
<event>
      5   9999  3.79277E-02  5.14910E+01 -1.00000E+00  1.38351E-01
      21    -1     0     0   502   501  0.000000000E+00  0.000000000E+00  5.678918647E+01  5.678918647E+01  0.000000000E+00  0.00000E+00  9.000E+00
      21    -1     0     0   501   511  0.000000000E+00  0.000000000E+00 -2.465375755E+03  2.465375755E+03  0.000000000E+00  0.00000E+00  9.000E+00
      25     1     1     2     0     0  1.083445210E+02 -6.120998810E+01 -2.491993862E+02  3.053039993E+02  1.250000000E+02  0.00000E+00  9.000E+00
      25     1     1     2     0     0 -1.216178528E+02  1.145923931E+01 -2.405905375E+02  2.973735412E+02  1.250000000E+02  0.00000E+00  9.000E+00
      21     1     1     2   502   511  1.327333186E+01  4.975074879E+01 -1.918796645E+03  1.919487401E+03  2.157918644E-05  0.00000E+00  9.000E+00
#rwgt            1           1   2.5849132574117827E-002           8      469309           0
</event>
<event>
      5   9999  3.79277E-02  1.49959E+02 -1.00000E+00  1.16398E-01
      -2    -1     0     0     0   501  0.000000000E+00  0.000000000E+00  2.262566535E+03  2.262566535E+03  0.000000000E+00  0.00000E+00  9.000E+00
      21    -1     0     0   501   502  0.000000000E+00  0.000000000E+00 -2.687011656E+02  2.687011656E+02  0.000000000E+00  0.00000E+00  9.000E+00
      25     1     1     2     0     0  8.957386972E+01  2.695809493E+02 -5.731640162E+01  3.156066163E+02  1.250000000E+02  0.00000E+00  9.000E+00
      25     1     1     2     0     0  3.772946178E+01 -1.903238369E+02  8.839563487E+01  2.471547358E+02  1.250000000E+02  0.00000E+00  9.000E+00
      -2     1     1     2     0   502 -1.273033315E+02 -7.925711242E+01  1.962786136E+03  1.968506348E+03  2.157918644E-05  0.00000E+00  9.000E+00
#rwgt            1           1   3.3090728161405285E-002           8      469416           0
</event>
<event>
      5   9999  3.79277E-02  1.03641E+01 -1.00000E+00  1.93979E-01
      21    -1     0     0   502   501  0.000000000E+00  0.000000000E+00  2.312237054E+02  2.312237054E+02  0.000000000E+00  0.00000E+00  9.000E+00
      21    -1     0     0   501   511  0.000000000E+00  0.000000000E+00 -2.612020127E+02  2.612020127E+02  0.000000000E+00  0.00000E+00  9.000E+00
      25     1     1     2     0     0 -1.375411581E+02  1.367853654E+02  3.273701965E+01  2.330762082E+02  1.250000000E+02  0.00000E+00  9.000E+00
      25     1     1     2     0     0  1.400414179E+02 -1.468433868E+02 -5.102701396E+01  2.437279941E+02  1.250000000E+02  0.00000E+00  9.000E+00
      21     1     1     2   502   511 -2.500259778E+00  1.005802140E+01 -1.168831304E+01  1.562151578E+01  1.685873940E-07  0.00000E+00  9.000E+00
#rwgt            1           1   3.6599556351978098E-002           8      469608           0
</event>
<event>
      5   9999  3.79277E-02  4.86966E+01 -1.00000E+00  1.39733E-01
      21    -1     0     0   502   501  0.000000000E+00  0.000000000E+00  1.499329587E+02  1.499329587E+02  0.000000000E+00  0.00000E+00  9.000E+00
      21    -1     0     0   512   502  0.000000000E+00  0.000000000E+00 -1.691525890E+03  1.691525890E+03  0.000000000E+00  0.00000E+00  9.000E+00
      25     1     1     2     0     0 -1.100664522E+02 -6.321840506E+01 -9.198007426E+01  2.004907097E+02  1.250000000E+02  0.00000E+00  9.000E+00
      25     1     1     2     0     0  1.326262156E+02  1.063741644E+02 -2.159901862E+01  2.121242408E+02  1.250000000E+02  0.00000E+00  9.000E+00
      21     1     1     2   512   501 -2.255976345E+01 -4.315575933E+01 -1.428013838E+03  1.428843898E+03  1.525878906E-05  0.00000E+00  9.000E+00
#rwgt            1           1   3.5991302658218996E-002           8      469962           0
</event>
<event>
      5   9999  3.79277E-02  6.14706E+01 -1.00000E+00  1.34144E-01
      21    -1     0     0   502   501  0.000000000E+00  0.000000000E+00  1.369174217E+03  1.369174217E+03  0.000000000E+00  0.00000E+00  9.000E+00
      -5    -1     0     0     0   502  0.000000000E+00  0.000000000E+00 -2.269607043E+02  2.269607043E+02  0.000000000E+00  0.00000E+00  9.000E+00
      25     1     1     2     0     0 -6.459474565E+01  9.302516549E+00 -2.466868995E+00  1.410322779E+02  1.250000000E+02  0.00000E+00  9.000E+00
      25     1     1     2     0     0  9.170940086E+01  4.586482169E+01  1.288548833E+03  1.298652105E+03  1.250000000E+02  0.00000E+00  9.000E+00
      -5     1     1     2     0   501 -2.711465521E+01 -5.516733824E+01 -1.438684510E+02  1.564505383E+02  3.303624740E-06  0.00000E+00  9.000E+00
#rwgt            1           1   5.6530275669576018E-002           8      470074           0
</event>
<event>
      5   9999  3.79277E-02  1.10418E+01 -1.00000E+00  1.90910E-01
      21    -1     0     0   511   501  0.000000000E+00  0.000000000E+00  2.021612259E+02  2.021612259E+02  0.000000000E+00  0.00000E+00  9.000E+00
      21    -1     0     0   501   502  0.000000000E+00  0.000000000E+00 -1.716281903E+02  1.716281903E+02  0.000000000E+00  0.00000E+00  9.000E+00
      25     1     1     2     0     0 -1.178481122E+01 -7.132421012E+01 -9.144716414E+01  1.709198893E+02  1.250000000E+02  0.00000E+00  9.000E+00
      25     1     1     2     0     0  1.693609622E+01  6.155768786E+01  8.458314023E+01  1.638764410E+02  1.250000000E+02  0.00000E+00  9.000E+00
      21     1     1     2   511   502 -5.151285001E+00  9.766522259E+00  3.739705954E+01  3.899308601E+01  4.768371582E-07  0.00000E+00  9.000E+00
#rwgt            1           1   3.6156426964722127E-002           8      470162           0
</event>
<event>
      5   9999  3.79277E-02  3.12316E+01 -1.00000E+00  1.51836E-01
      21    -1     0     0   502   501  0.000000000E+00  0.000000000E+00  1.685129507E+02  1.685129507E+02  0.000000000E+00  0.00000E+00  9.000E+00
      21    -1     0     0   512   502  0.000000000E+00  0.000000000E+00 -4.238827858E+02  4.238827858E+02  0.000000000E+00  0.00000E+00  9.000E+00
      25     1     1     2     0     0  4.166393618E+01 -1.831574267E+02 -1.899514475E+02  2.949391106E+02  1.250000000E+02  0.00000E+00  9.000E+00
      25     1     1     2     0     0 -4.958727145E+01  2.133672546E+02 -3.639564797E+01  2.548217534E+02  1.250000000E+02  0.00000E+00  9.000E+00
      21     1     1     2   512   501  7.923335272E+00 -3.020982789E+01 -2.902273960E+01  4.263487254E+01  3.371747881E-07  0.00000E+00  9.000E+00
#rwgt            1           1   3.7826261715033234E-002           8      470410           0
</event>
<event>
      5   9999  3.79277E-02  2.91114E+01 -1.00000E+00  1.53952E-01
      21    -1     0     0   502   501  0.000000000E+00  0.000000000E+00  1.386943658E+02  1.386943658E+02  0.000000000E+00  0.00000E+00  9.000E+00
      21    -1     0     0   501   511  0.000000000E+00  0.000000000E+00 -5.401998631E+02  5.401998631E+02  0.000000000E+00  0.00000E+00  9.000E+00
      25     1     1     2     0     0  1.218898494E+02 -4.102939940E+00  4.868854910E+01  1.812995982E+02  1.250000000E+02  0.00000E+00  9.000E+00
      25     1     1     2     0     0 -1.295584182E+02 -2.398029108E+01 -4.046831012E+02  4.435694427E+02  1.250000000E+02  0.00000E+00  9.000E+00
      21     1     1     2   502   511  7.668568816E+00  2.808323102E+01 -4.551094509E+01  5.402518797E+01  9.536743164E-07  0.00000E+00  9.000E+00
#rwgt            1           1   1.7873680812999938E-002           8      470553           0
</event>
<event>
      5   9999  3.79277E-02  4.68760E+01 -1.00000E+00  1.40693E-01
      21    -1     0     0   502   501  0.000000000E+00  0.000000000E+00  4.738404343E+02  4.738404343E+02  0.000000000E+00  0.00000E+00  9.000E+00
      21    -1     0     0   512   502  0.000000000E+00  0.000000000E+00 -1.547986773E+02  1.547986773E+02  0.000000000E+00  0.00000E+00  9.000E+00
      25     1     1     2     0     0  1.178706809E+02  2.536145409E+01  3.030484873E+02  3.492851077E+02  1.250000000E+02  0.00000E+00  9.000E+00
      25     1     1     2     0     0 -1.641901041E+02 -1.815952729E+01  5.936275204E+01  2.154926798E+02  1.250000000E+02  0.00000E+00  9.000E+00
      21     1     1     2   512   501  4.631942318E+01 -7.201926797E+00 -4.336948235E+01  6.386132408E+01  4.768371582E-07  0.00000E+00  9.000E+00
#rwgt            1           1   3.9630854802593624E-002           8      470694           0
</event>
<event>
      5   9999  3.79277E-02  7.57809E+01 -1.00000E+00  1.29499E-01
      21    -1     0     0   502   501  0.000000000E+00  0.000000000E+00  5.076028090E+01  5.076028090E+01  0.000000000E+00  0.00000E+00  9.000E+00
      21    -1     0     0   511   502  0.000000000E+00  0.000000000E+00 -1.336741808E+03  1.336741808E+03  0.000000000E+00  0.00000E+00  9.000E+00
      25     1     1     2     0     0 -7.589060753E+01  1.906731825E+02 -5.187567918E+02  5.717073166E+02  1.250000000E+02  0.00000E+00  9.000E+00
      25     1     1     2     0     0  7.579933234E+00 -1.578647535E+02 -5.565391041E+02  5.918948473E+02  1.250000000E+02  0.00000E+00  9.000E+00
      21     1     1     2   511   501  6.831067430E+01 -3.280842900E+01 -2.106856315E+02  2.238999253E+02  0.000000000E+00  0.00000E+00  9.000E+00
#rwgt            1           1   1.5076248144872706E-002           8      470850           0
</event>
<event>
      5   9999  3.79277E-02  1.51850E+02 -1.00000E+00  1.16183E-01
      21    -1     0     0   502   501  0.000000000E+00  0.000000000E+00  4.102080369E+02  4.102080369E+02  0.000000000E+00  0.00000E+00  9.000E+00
      21    -1     0     0   501   512  0.000000000E+00  0.000000000E+00 -4.963631436E+02  4.963631436E+02  0.000000000E+00  0.00000E+00  9.000E+00
      25     1     1     2     0     0  8.765942392E+01  3.187999363E+02  4.497749153E+00  3.535007832E+02  1.250000000E+02  0.00000E+00  9.000E+00
      25     1     1     2     0     0  2.790617407E+01 -2.202956651E+02  1.293337798E+02  2.857641706E+02  1.250000000E+02  0.00000E+00  9.000E+00
      21     1     1     2   502   512 -1.155655980E+02 -9.850427122E+01 -2.199866357E+02  2.673062266E+02  3.814697266E-06  0.00000E+00  9.000E+00
#rwgt            2          11   1.9826936225402739E-003           8      471246           0
</event>
<event>
      5   9999  3.79277E-02  6.73013E+01 -1.00000E+00  1.32091E-01
      21    -1     0     0   511   501  0.000000000E+00  0.000000000E+00  1.690603753E+02  1.690603753E+02  0.000000000E+00  0.00000E+00  9.000E+00
      21    -1     0     0   501   502  0.000000000E+00  0.000000000E+00 -4.949750194E+02  4.949750194E+02  0.000000000E+00  0.00000E+00  9.000E+00
      25     1     1     2     0     0  9.522590001E+01 -1.170785849E+02 -2.566191833E+01  1.976332491E+02  1.250000000E+02  0.00000E+00  9.000E+00
      25     1     1     2     0     0 -1.437725623E+02  1.636906004E+02 -3.093579401E+02  3.984877632E+02  1.250000000E+02  0.00000E+00  9.000E+00
      21     1     1     2   511   502  4.854666227E+01 -4.661201550E+01  9.105214310E+00  6.791438237E+01  7.052516679E-07  0.00000E+00  9.000E+00
#rwgt            1           1   4.4272633627865841E-002           8      471266           0
</event>
<event>
      5   9999  3.79277E-02  2.31193E+02 -1.00000E+00  1.09404E-01
       1    -1     0     0   502     0  0.000000000E+00  0.000000000E+00  1.827454994E+03  1.827454994E+03  0.000000000E+00  0.00000E+00  9.000E+00
      21    -1     0     0   501   502  0.000000000E+00  0.000000000E+00 -9.856437740E+01  9.856437740E+01  0.000000000E+00  0.00000E+00  9.000E+00
      25     1     1     2     0     0  4.435444494E+00  6.925610300E+01  7.320481748E+02  7.458790861E+02  1.250000000E+02  0.00000E+00  9.000E+00
      25     1     1     2     0     0  1.354078142E+02 -2.533591783E+02  2.576245328E+02  4.056125606E+02  1.250000000E+02  0.00000E+00  9.000E+00
       1     1     1     2   501     0 -1.398432587E+02  1.841030753E+02  7.392179092E+02  7.745277248E+02  1.868812365E-05  0.00000E+00  9.000E+00
#rwgt            1           1   4.2691272609869900E-002           8      471337           0
</event>
<event>
      5   9999  3.79277E-02  4.15066E+01 -1.00000E+00  1.43851E-01
      21    -1     0     0   502   511  0.000000000E+00  0.000000000E+00  4.539721491E+02  4.539721491E+02  0.000000000E+00  0.00000E+00  9.000E+00
      21    -1     0     0   501   502  0.000000000E+00  0.000000000E+00 -4.708994903E+02  4.708994903E+02  0.000000000E+00  0.00000E+00  9.000E+00
      25     1     1     2     0     0  3.027624475E+02  2.072781988E+01 -5.571929837E+01  3.329029624E+02  1.250000000E+02  0.00000E+00  9.000E+00
      25     1     1     2     0     0 -3.307154025E+02  9.954934472E+00 -1.604979347E+02  3.884023239E+02  1.250000000E+02  0.00000E+00  9.000E+00
      21     1     1     2   501   511  2.795295499E+01 -3.068275435E+01  1.992898919E+02  2.035663531E+02  0.000000000E+00  0.00000E+00  9.000E+00
#rwgt            1           1   3.8138928671737266E-002           8      471449           0
</event>
<event>
      5   9999  3.79277E-02  7.22787E+01 -1.00000E+00  1.30520E-01
      21    -1     0     0   502   501  0.000000000E+00  0.000000000E+00  7.113681385E+01  7.113681385E+01  0.000000000E+00  0.00000E+00  9.000E+00
      21    -1     0     0   501   512  0.000000000E+00  0.000000000E+00 -1.054165326E+03  1.054165326E+03  0.000000000E+00  0.00000E+00  9.000E+00
      25     1     1     2     0     0  1.825133999E+02 -4.952866564E+01 -3.629122955E+02  4.278955060E+02  1.250000000E+02  0.00000E+00  9.000E+00
      25     1     1     2     0     0 -1.864298322E+02 -2.264386211E+01 -3.394158465E+02  4.075499278E+02  1.250000000E+02  0.00000E+00  9.000E+00
      21     1     1     2   502   512  3.916432259E+00  7.217252776E+01 -2.807003698E+02  2.898567056E+02  0.000000000E+00  0.00000E+00  9.000E+00
#rwgt            1           1   4.1871654267660569E-002           8      471576           0
</event>
<event>
      5   9999  3.79277E-02  2.32899E+01 -1.00000E+00  1.61091E-01
      21    -1     0     0   502   501  0.000000000E+00  0.000000000E+00  4.258369119E+01  4.258369119E+01  0.000000000E+00  0.00000E+00  9.000E+00
      21    -1     0     0   501   511  0.000000000E+00  0.000000000E+00 -2.108544031E+03  2.108544031E+03  0.000000000E+00  0.00000E+00  9.000E+00
      25     1     1     2     0     0  9.280060736E+01 -9.756768468E+01 -2.086980065E+02  2.780490312E+02  1.250000000E+02  0.00000E+00  9.000E+00
      25     1     1     2     0     0 -8.128294417E+01  1.178103116E+02 -1.162755066E+03  1.178181026E+03  1.250000000E+02  0.00000E+00  9.000E+00
      21     1     1     2   502   511 -1.151766318E+01 -2.024262693E+01 -6.945072671E+02  6.948976648E+02  7.629394531E-06  0.00000E+00  9.000E+00
#rwgt            1           1   3.6871708467747219E-002           8      471661           0
</event>
<event>
      5   9999  3.79277E-02  1.02044E+02 -1.00000E+00  1.23434E-01
      21    -1     0     0   502   501  0.000000000E+00  0.000000000E+00  8.469311804E+01  8.469311804E+01  0.000000000E+00  0.00000E+00  9.000E+00
       2    -1     0     0   501     0  0.000000000E+00  0.000000000E+00 -1.425725617E+03  1.425725617E+03  0.000000000E+00  0.00000E+00  9.000E+00
      25     1     1     2     0     0  1.043152149E+02 -4.891202262E+01 -5.514079098E+02  5.770179660E+02  1.250000000E+02  0.00000E+00  9.000E+00
      25     1     1     2     0     0 -2.061556906E+02  4.247261554E+01 -1.530734280E+02  2.887222995E+02  1.250000000E+02  0.00000E+00  9.000E+00
       2     1     1     2   502     0  1.018404757E+02  6.439407083E+00 -6.365511616E+02  6.446784701E+02  0.000000000E+00  0.00000E+00  9.000E+00
#rwgt            1           1   2.8448090606163656E-002           8      471816           0
</event>
<event>
      5   9999  3.79277E-02  3.99229E+01 -1.00000E+00  1.44892E-01
      21    -1     0     0   502   501  0.000000000E+00  0.000000000E+00  1.142952315E+02  1.142952315E+02  0.000000000E+00  0.00000E+00  9.000E+00
      21    -1     0     0   511   502  0.000000000E+00  0.000000000E+00 -4.384776776E+02  4.384776776E+02  0.000000000E+00  0.00000E+00  9.000E+00
      25     1     1     2     0     0  1.211673129E+02  1.305220291E+01 -1.773144403E+02  2.488318477E+02  1.250000000E+02  0.00000E+00  9.000E+00
      25     1     1     2     0     0 -1.066015783E+02 -5.022308733E+01 -2.241880203E+01  1.732450798E+02  1.250000000E+02  0.00000E+00  9.000E+00
      21     1     1     2   511   501 -1.456573459E+01  3.717088442E+01 -1.244492038E+02  1.306959816E+02  2.336015456E-06  0.00000E+00  9.000E+00
#rwgt            2          11   1.1317427251360535E-003           8      472015           0
</event>
<event>
      5   9999  3.79277E-02  1.24194E+01 -1.00000E+00  1.85473E-01
      21    -1     0     0   502   501  0.000000000E+00  0.000000000E+00  2.261128035E+02  2.261128035E+02  0.000000000E+00  0.00000E+00  9.000E+00
      21    -1     0     0   512   502  0.000000000E+00  0.000000000E+00 -2.226697081E+02  2.226697081E+02  0.000000000E+00  0.00000E+00  9.000E+00
      25     1     1     2     0     0 -1.507576597E+02 -7.085380852E+01 -1.819166655E+01  2.090551862E+02  1.250000000E+02  0.00000E+00  9.000E+00
      25     1     1     2     0     0  1.630958231E+02  6.943580550E+01  3.693133795E+01  2.200238677E+02  1.250000000E+02  0.00000E+00  9.000E+00
      21     1     1     2   512   501 -1.233816343E+01  1.418003023E+00 -1.529657605E+01  1.970345778E+01  0.000000000E+00  0.00000E+00  9.000E+00
#rwgt            1           1   4.4656130819089465E-002           8      472110           0
</event>
<event>
      5   9999  4.42502E-02  1.38576E+01 -1.00000E+00  1.80687E-01
      21    -1     0     0   502   501  0.000000000E+00  0.000000000E+00  1.061028146E+03  1.061028146E+03  0.000000000E+00  0.00000E+00  9.000E+00
      21    -1     0     0   501   511  0.000000000E+00  0.000000000E+00 -9.800048709E+01  9.800048709E+01  0.000000000E+00  0.00000E+00  9.000E+00
      25     1     1     2     0     0  1.586460250E+00 -2.414826744E+02  1.996692652E+02  3.373562128E+02  1.250000000E+02  0.00000E+00  9.000E+00
      25     1     1     2     0     0  3.460020535E+00  2.543887229E+02  7.523377352E+02  8.039668289E+02  1.250000000E+02  0.00000E+00  9.000E+00
      21     1     1     2   502   511 -5.046480785E+00 -1.290604860E+01  1.102065892E+01  1.770559182E+01  2.665600750E-07  0.00000E+00  9.000E+00
#rwgt            1           1  0.47440118435494566                8      472460           0
</event>
<event>
      5   9999  3.79277E-02  1.18049E+01 -1.00000E+00  1.87780E-01
      21    -1     0     0   512   501  0.000000000E+00  0.000000000E+00  1.307818839E+02  1.307818839E+02  0.000000000E+00  0.00000E+00  9.000E+00
      21    -1     0     0   501   502  0.000000000E+00  0.000000000E+00 -1.214771203E+03  1.214771203E+03  0.000000000E+00  0.00000E+00  9.000E+00
      25     1     1     2     0     0 -9.949860598E+01 -3.792092615E+01 -8.095062346E+02  8.259923202E+02  1.250000000E+02  0.00000E+00  9.000E+00
      25     1     1     2     0     0  8.863422765E+01  4.253834399E+01 -3.807568384E+02  4.126333808E+02  1.250000000E+02  0.00000E+00  9.000E+00
      21     1     1     2   512   502  1.086437833E+01 -4.617417834E+00  1.062737534E+02  1.069273863E+02  3.814697266E-06  0.00000E+00  9.000E+00
#rwgt            1           1   3.8975023085475284E-002           8      472740           0
</event>
<event>
      5   9999  3.79277E-02  5.35962E+01 -1.00000E+00  1.37376E-01
      21    -1     0     0   502   501  0.000000000E+00  0.000000000E+00  2.055447557E+02  2.055447557E+02  0.000000000E+00  0.00000E+00  9.000E+00
      21    -1     0     0   501   511  0.000000000E+00  0.000000000E+00 -3.659529671E+02  3.659529671E+02  0.000000000E+00  0.00000E+00  9.000E+00
      25     1     1     2     0     0  1.527825955E+01 -3.369792797E+01  1.465259068E+02  1.961219440E+02  1.250000000E+02  0.00000E+00  9.000E+00
      25     1     1     2     0     0 -4.048123694E+01  8.099867045E+01 -1.771528704E+02  2.349630921E+02  1.250000000E+02  0.00000E+00  9.000E+00
      21     1     1     2   502   511  2.520297739E+01 -4.730074249E+01 -1.297812478E+02  1.404126867E+02  2.697398305E-06  0.00000E+00  9.000E+00
#rwgt            1           1   4.9330314036843910E-002           8      472961           0
</event>
<event>
      5   9999  3.79277E-02  3.24101E+01 -1.00000E+00  1.50745E-01
      21    -1     0     0   502   512  0.000000000E+00  0.000000000E+00  1.351574762E+02  1.351574762E+02  0.000000000E+00  0.00000E+00  9.000E+00
      21    -1     0     0   501   502  0.000000000E+00  0.000000000E+00 -6.025117287E+02  6.025117287E+02  0.000000000E+00  0.00000E+00  9.000E+00
      25     1     1     2     0     0  1.010449362E+02 -1.135568962E+02 -4.591892027E+02  4.995847993E+02  1.250000000E+02  0.00000E+00  9.000E+00
      25     1     1     2     0     0 -1.298171041E+02  9.863798763E+01 -9.310433974E+00  2.056541206E+02  1.250000000E+02  0.00000E+00  9.000E+00
      21     1     1     2   501   512  2.877216797E+01  1.491890859E+01  1.145384102E+00  3.243028504E+01  9.829120388E-07  0.00000E+00  9.000E+00
#rwgt            1           1   4.9182288347876843E-002           8      473082           0
</event>
<event>
      5   9999  3.79277E-02  1.56326E+01 -1.00000E+00  1.75710E-01
      21    -1     0     0   511   501  0.000000000E+00  0.000000000E+00  1.491244449E+02  1.491244449E+02  0.000000000E+00  0.00000E+00  9.000E+00
      21    -1     0     0   501   502  0.000000000E+00  0.000000000E+00 -4.449826171E+02  4.449826171E+02  0.000000000E+00  0.00000E+00  9.000E+00
      25     1     1     2     0     0 -2.006841792E+02  4.381590498E+01 -2.159998017E+02  3.232257534E+02  1.250000000E+02  0.00000E+00  9.000E+00
      25     1     1     2     0     0  1.969668065E+02 -5.900007460E+01 -8.372441305E+01  2.547777640E+02  1.250000000E+02  0.00000E+00  9.000E+00
      21     1     1     2   511   502  3.717372663E+00  1.518416961E+01  3.866042583E+00  1.610354469E+01  3.526258339E-07  0.00000E+00  9.000E+00
#rwgt            1           1   7.5717093783680148E-002           8      473253           0
</event>
<event>
      5   9999  3.79277E-02  8.26996E+01 -1.00000E+00  1.27656E-01
      21    -1     0     0   512   501  0.000000000E+00  0.000000000E+00  7.910765111E+01  7.910765111E+01  0.000000000E+00  0.00000E+00  9.000E+00
      21    -1     0     0   501   502  0.000000000E+00  0.000000000E+00 -9.586818929E+02  9.586818929E+02  0.000000000E+00  0.00000E+00  9.000E+00
      25     1     1     2     0     0 -1.357003610E+02  5.182573715E+01 -3.396188906E+02  3.899570308E+02  1.250000000E+02  0.00000E+00  9.000E+00
      25     1     1     2     0     0  2.176363271E+02 -6.303798462E+01 -4.812600187E+02  5.464206841E+02  1.250000000E+02  0.00000E+00  9.000E+00
      21     1     1     2   512   502 -8.193596611E+01  1.121224747E+01 -5.869533249E+01  1.014118292E+02  1.651812370E-06  0.00000E+00  9.000E+00
#rwgt            1           1   3.2884048971661452E-002           8      473473           0
</event>
<event>
      5   9999  3.79277E-02  6.91319E+01 -1.00000E+00  1.31496E-01
      21    -1     0     0   502   511  0.000000000E+00  0.000000000E+00  2.520757359E+02  2.520757359E+02  0.000000000E+00  0.00000E+00  9.000E+00
      21    -1     0     0   501   502  0.000000000E+00  0.000000000E+00 -1.029681476E+03  1.029681476E+03  0.000000000E+00  0.00000E+00  9.000E+00
      25     1     1     2     0     0  2.428349214E+02  1.844737423E+01 -4.391508099E+02  5.174819210E+02  1.250000000E+02  0.00000E+00  9.000E+00
      25     1     1     2     0     0 -1.786467772E+02  7.225642730E+00 -5.232856804E+02  5.669389598E+02  1.250000000E+02  0.00000E+00  9.000E+00
      21     1     1     2   501   511 -6.418814426E+01 -2.567301696E+01  1.848307498E+02  1.973363315E+02  2.697398305E-06  0.00000E+00  9.000E+00
#rwgt            1           1   3.7474995750365191E-002           8      473572           0
</event>
<event>
      5   9999  3.79277E-02  1.81834E+01 -1.00000E+00  1.69855E-01
      21    -1     0     0   502   501  0.000000000E+00  0.000000000E+00  3.225563273E+02  3.225563273E+02  0.000000000E+00  0.00000E+00  9.000E+00
      21    -1     0     0   501   512  0.000000000E+00  0.000000000E+00 -2.491275130E+02  2.491275130E+02  0.000000000E+00  0.00000E+00  9.000E+00
      25     1     1     2     0     0  8.915190890E+01 -2.272901329E+02 -7.488215538E+00  2.743901251E+02  1.250000000E+02  0.00000E+00  9.000E+00
      25     1     1     2     0     0 -7.105455275E+01  2.255231403E+02  7.964494338E+01  2.790658584E+02  1.250000000E+02  0.00000E+00  9.000E+00
      21     1     1     2   502   512 -1.809735615E+01  1.766992536E+00  1.272086497E+00  1.822785687E+01  2.610894362E-07  0.00000E+00  9.000E+00
#rwgt            1           1   2.7940418637344231E-002           8      473682           0
</event>
<event>
      5   9999  3.79277E-02  4.33460E+01 -1.00000E+00  1.42709E-01
      21    -1     0     0   502   501  0.000000000E+00  0.000000000E+00  2.738446519E+02  2.738446519E+02  0.000000000E+00  0.00000E+00  9.000E+00
      21    -1     0     0   501   511  0.000000000E+00  0.000000000E+00 -2.354631747E+02  2.354631747E+02  0.000000000E+00  0.00000E+00  9.000E+00
      25     1     1     2     0     0  1.888443477E+02  1.356825065E+01 -4.209342775E+01  2.307447546E+02  1.250000000E+02  0.00000E+00  9.000E+00
      25     1     1     2     0     0 -1.751179174E+02  2.754692599E+01  8.887305368E+01  2.344110445E+02  1.250000000E+02  0.00000E+00  9.000E+00
      21     1     1     2   502   511 -1.372643039E+01 -4.111517664E+01 -8.398148727E+00  4.415202763E+01  5.462855929E-07  0.00000E+00  9.000E+00
#rwgt            1           1   3.3329461439412573E-002           8      473917           0
</event>
<event>
      5   9999  3.79277E-02  7.77644E+01 -1.00000E+00  1.28948E-01
      -1    -1     0     0     0   501  0.000000000E+00  0.000000000E+00  4.113448792E+02  4.113448792E+02  0.000000000E+00  0.00000E+00  9.000E+00
      21    -1     0     0   501   502  0.000000000E+00  0.000000000E+00 -2.436893289E+02  2.436893289E+02  0.000000000E+00  0.00000E+00  9.000E+00
      25     1     1     2     0     0  7.788736586E+01  4.415823265E+01  3.974449939E+01  1.588112606E+02  1.250000000E+02  0.00000E+00  9.000E+00
      25     1     1     2     0     0 -1.431199982E+02 -8.649032541E+01 -1.169544741E+02  2.393057862E+02  1.250000000E+02  0.00000E+00  9.000E+00
      -1     1     1     2     0   502  6.523263239E+01  4.233209276E+01  2.448655250E+02  2.569171612E+02  2.697398305E-06  0.00000E+00  9.000E+00
#rwgt            1           1   4.0745584206065708E-002           8      474021           0
</event>
<event>
      5   9999  3.79277E-02  5.54957E+01 -1.00000E+00  1.36540E-01
      21    -1     0     0   502   511  0.000000000E+00  0.000000000E+00  3.823003601E+02  3.823003601E+02  0.000000000E+00  0.00000E+00  9.000E+00
      21    -1     0     0   501   502  0.000000000E+00  0.000000000E+00 -3.413919347E+02  3.413919347E+02  0.000000000E+00  0.00000E+00  9.000E+00
      25     1     1     2     0     0 -7.460369625E+01  2.168392254E+02 -1.438811912E+02  2.981807478E+02  1.250000000E+02  0.00000E+00  9.000E+00
      25     1     1     2     0     0  5.199954719E+01 -1.661556449E+02 -1.817413107E+01  2.150975367E+02  1.250000000E+02  0.00000E+00  9.000E+00
      21     1     1     2   501   511  2.260414905E+01 -5.068358052E+01  2.029637476E+02  2.104140103E+02  0.000000000E+00  0.00000E+00  9.000E+00
#rwgt            1           1   4.6885018765139237E-002           8      474155           0
</event>
<event>
      5   9999  3.79277E-02  3.86204E+01 -1.00000E+00  1.45792E-01
      21    -1     0     0   502   501  0.000000000E+00  0.000000000E+00  7.475756442E+02  7.475756442E+02  0.000000000E+00  0.00000E+00  9.000E+00
      21    -1     0     0   501   512  0.000000000E+00  0.000000000E+00 -7.915073868E+01  7.915073868E+01  0.000000000E+00  0.00000E+00  9.000E+00
      25     1     1     2     0     0 -7.615259118E+01 -1.512699771E+02  4.314239387E+02  4.800348300E+02  1.250000000E+02  0.00000E+00  9.000E+00
      25     1     1     2     0     0  3.913456865E+01  1.402608005E+02  2.407607917E+02  3.078885601E+02  1.250000000E+02  0.00000E+00  9.000E+00
      21     1     1     2   502   512  3.701802253E+01  1.100917665E+01 -3.759824940E+00  3.880299275E+01  9.405454301E-07  0.00000E+00  9.000E+00
#rwgt            1           1   4.2420492916408085E-002           8      474342           0
</event>
<event>
      5   9999  3.79277E-02  7.58695E+01 -1.00000E+00  1.29474E-01
      21    -1     0     0   502   501  0.000000000E+00  0.000000000E+00  7.714220421E+01  7.714220421E+01  0.000000000E+00  0.00000E+00  9.000E+00
      21    -1     0     0   501   511  0.000000000E+00  0.000000000E+00 -7.509038575E+02  7.509038575E+02  0.000000000E+00  0.00000E+00  9.000E+00
      25     1     1     2     0     0 -5.058436807E+01  8.139245175E+01 -3.317246002E+02  3.672188991E+02  1.250000000E+02  0.00000E+00  9.000E+00
      25     1     1     2     0     0  9.244863877E+01 -1.446661199E+02 -1.673686853E+02  2.703928880E+02  1.250000000E+02  0.00000E+00  9.000E+00
      21     1     1     2   502   511 -4.186427070E+01  6.327366812E+01 -1.746683678E+02  1.904342746E+02  1.907348633E-06  0.00000E+00  9.000E+00
#rwgt            1           1  0.17835974659346487                8      474547           0
</event>
<event>
      5   9999  3.79277E-02  5.86078E+01 -1.00000E+00  1.35251E-01
      21    -1     0     0   502   501  0.000000000E+00  0.000000000E+00  1.132489389E+02  1.132489389E+02  0.000000000E+00  0.00000E+00  9.000E+00
      21    -1     0     0   512   502  0.000000000E+00  0.000000000E+00 -1.025069297E+03  1.025069297E+03  0.000000000E+00  0.00000E+00  9.000E+00
      25     1     1     2     0     0  3.954051155E+01 -6.034321104E+01 -3.368234860E+02  3.664421044E+02  1.250000000E+02  0.00000E+00  9.000E+00
      25     1     1     2     0     0  1.906122930E+01  6.118441685E+01  4.623674904E+01  1.478840772E+02  1.250000000E+02  0.00000E+00  9.000E+00
      21     1     1     2   512   501 -5.860174085E+01 -8.412058138E-01 -6.212336208E+02  6.239920539E+02  0.000000000E+00  0.00000E+00  9.000E+00
#rwgt            1           1   3.1624781859819616E-002           8      474601           0
</event>
<event>
      5   9999  3.79277E-02  7.81682E+01 -1.00000E+00  1.28838E-01
      21    -1     0     0   511   501  0.000000000E+00  0.000000000E+00  4.168937102E+03  4.168937102E+03  0.000000000E+00  0.00000E+00  9.000E+00
      21    -1     0     0   501   502  0.000000000E+00  0.000000000E+00 -3.770618560E+01  3.770618560E+01  0.000000000E+00  0.00000E+00  9.000E+00
      25     1     1     2     0     0  5.827218305E+01  1.156859003E+02  2.360457380E+02  2.968525986E+02  1.250000000E+02  0.00000E+00  9.000E+00
      25     1     1     2     0     0 -2.730354104E+01 -4.391392195E+01  6.629474261E+02  6.766078670E+02  1.250000000E+02  0.00000E+00  9.000E+00
      21     1     1     2   511   502 -3.096864201E+01 -7.177197830E+01  3.232237752E+03  3.233182822E+03  7.475249459E-05  0.00000E+00  9.000E+00
#rwgt            1           1   3.7376592052765015E-002           8      474832           0
</event>
<event>
      5   9999  3.79277E-02  9.25944E+01 -1.00000E+00  1.25350E-01
       2    -1     0     0   502     0  0.000000000E+00  0.000000000E+00  2.890107196E+03  2.890107196E+03  0.000000000E+00  0.00000E+00  9.000E+00
      21    -1     0     0   501   502  0.000000000E+00  0.000000000E+00 -3.066822825E+01  3.066822825E+01  0.000000000E+00  0.00000E+00  9.000E+00
      25     1     1     2     0     0  7.609579762E+00 -7.701381402E+01  2.007386046E+02  2.488172434E+02  1.250000000E+02  0.00000E+00  9.000E+00
      25     1     1     2     0     0 -2.945954739E+01 -1.296560259E+01  7.509839389E+02  7.619959634E+02  1.250000000E+02  0.00000E+00  9.000E+00
       2     1     1     2   501     0  2.184996762E+01  8.997941661E+01  1.907716424E+03  1.909962217E+03  0.000000000E+00  0.00000E+00  9.000E+00
#rwgt            1           1   6.9516709425911247E-002           8      475027           0
</event>
<event>
      5   9999  3.79277E-02  2.72379E+01 -1.00000E+00  1.56012E-01
      21    -1     0     0   502   501  0.000000000E+00  0.000000000E+00  9.567265089E+02  9.567265089E+02  0.000000000E+00  0.00000E+00  9.000E+00
      21    -1     0     0   501   511  0.000000000E+00  0.000000000E+00 -3.941243197E+01  3.941243197E+01  0.000000000E+00  0.00000E+00  9.000E+00
      25     1     1     2     0     0  8.217953776E+01 -6.707513644E+01  5.349850765E+02  5.595414037E+02  1.250000000E+02  0.00000E+00  9.000E+00
      25     1     1     2     0     0 -1.088427914E+02  6.150992920E+01  3.611304969E+02  4.020826537E+02  1.250000000E+02  0.00000E+00  9.000E+00
      21     1     1     2   502   511  2.666325368E+01  5.565207245E+00  2.119850356E+01  3.451488349E+01  2.384185791E-07  0.00000E+00  9.000E+00
#rwgt            1           1   4.2611725271067533E-002           8      475166           0
</event>
<event>
      5   9999  3.79277E-02  1.70930E+02 -1.00000E+00  1.14189E-01
      -1    -1     0     0     0   501  0.000000000E+00  0.000000000E+00  3.578072255E+02  3.578072255E+02  0.000000000E+00  0.00000E+00  9.000E+00
      21    -1     0     0   501   502  0.000000000E+00  0.000000000E+00 -3.734473287E+02  3.734473287E+02  0.000000000E+00  0.00000E+00  9.000E+00
      25     1     1     2     0     0  1.593978329E+02  2.389438668E+01 -2.220797280E+02  3.015344365E+02  1.250000000E+02  0.00000E+00  9.000E+00
      25     1     1     2     0     0 -8.798089955E+01  1.314012861E+02  7.895812644E+01  2.164863100E+02  1.250000000E+02  0.00000E+00  9.000E+00
      -1     1     1     2     0   502 -7.141693330E+01 -1.552956727E+02  1.274814984E+02  2.132338077E+02  3.303624740E-06  0.00000E+00  9.000E+00
#rwgt            2           5   4.6414639519774668E-005           8      475367           0
</event>
<event>
      5   9999  3.79277E-02  2.80434E+01 -1.00000E+00  1.55103E-01
      21    -1     0     0   502   501  0.000000000E+00  0.000000000E+00  7.773363858E+02  7.773363858E+02  0.000000000E+00  0.00000E+00  9.000E+00
      21    -1     0     0   511   502  0.000000000E+00  0.000000000E+00 -1.687529393E+02  1.687529393E+02  0.000000000E+00  0.00000E+00  9.000E+00
      25     1     1     2     0     0 -5.542550003E+01 -6.165376752E+01  6.308018049E+02  6.483896129E+02  1.250000000E+02  0.00000E+00  9.000E+00
      25     1     1     2     0     0  2.963639975E+01  7.266975345E+01  9.608689047E+01  1.761161542E+02  1.250000000E+02  0.00000E+00  9.000E+00
      21     1     1     2   511   501  2.578910028E+01 -1.101598594E+01 -1.183052489E+02  1.215835579E+02  2.336015456E-06  0.00000E+00  9.000E+00
#rwgt            1           1   4.7255799918926894E-002           8      475386           0
</event>
<event>
      5   9999  3.79277E-02  3.33496E+01 -1.00000E+00  1.49914E-01
      21    -1     0     0   502   512  0.000000000E+00  0.000000000E+00  4.267567226E+02  4.267567226E+02  0.000000000E+00  0.00000E+00  9.000E+00
      21    -1     0     0   501   502  0.000000000E+00  0.000000000E+00 -1.646824599E+02  1.646824599E+02  0.000000000E+00  0.00000E+00  9.000E+00
      25     1     1     2     0     0 -2.018136538E+02  8.028572948E+01  1.231071879E+02  2.792040990E+02  1.250000000E+02  0.00000E+00  9.000E+00
      25     1     1     2     0     0  1.933242800E+02 -4.803475739E+01  8.753339478E+01  2.509356698E+02  1.250000000E+02  0.00000E+00  9.000E+00
      21     1     1     2   501   512  8.489373745E+00 -3.225097209E+01  5.143368007E+01  6.129941364E+01  0.000000000E+00  0.00000E+00  9.000E+00
#rwgt            1           1   4.1901407814790806E-002           8      475533           0
</event>
<event>
      5   9999  3.79277E-02  2.30718E+01 -1.00000E+00  1.61407E-01
      21    -1     0     0   502   511  0.000000000E+00  0.000000000E+00  9.409040432E+00  9.409040432E+00  0.000000000E+00  0.00000E+00  9.000E+00
      21    -1     0     0   501   502  0.000000000E+00  0.000000000E+00 -3.510575221E+03  3.510575221E+03  0.000000000E+00  0.00000E+00  9.000E+00
      25     1     1     2     0     0  6.723182834E+01 -4.011732741E+01 -1.442269170E+03  1.449791322E+03  1.250000000E+02  0.00000E+00  9.000E+00
      25     1     1     2     0     0 -5.414777775E+01  5.912036819E+01 -2.016197537E+03  2.021658900E+03  1.250000000E+02  0.00000E+00  9.000E+00
      21     1     1     2   501   511 -1.308405059E+01 -1.900304079E+01 -4.269947373E+01  4.853403955E+01  0.000000000E+00  0.00000E+00  9.000E+00
#rwgt            1           1  0.32236896050012831                8      475705           0
</event>
<event>
      5   9999  3.79277E-02  1.59303E+01 -1.00000E+00  1.74956E-01
      21    -1     0     0   502   501  0.000000000E+00  0.000000000E+00  1.282977910E+02  1.282977910E+02  0.000000000E+00  0.00000E+00  9.000E+00
      21    -1     0     0   512   502  0.000000000E+00  0.000000000E+00 -1.024021640E+03  1.024021640E+03  0.000000000E+00  0.00000E+00  9.000E+00
      25     1     1     2     0     0  1.686785350E+01  2.700252667E+02 -2.780018679E+02  4.075637468E+02  1.250000000E+02  0.00000E+00  9.000E+00
      25     1     1     2     0     0 -9.983734808E+00 -2.556591811E+02 -2.566964875E+02  3.833788968E+02  1.250000000E+02  0.00000E+00  9.000E+00
      21     1     1     2   512   501 -6.884118694E+00 -1.436608560E+01 -3.610254934E+02  3.613767873E+02  5.394796609E-06  0.00000E+00  9.000E+00
#rwgt            1           1   3.8865402941044583E-002           8      475904           0
</event>
<event>
      5   9999  3.79277E-02  1.31527E+02 -1.00000E+00  1.18701E-01
      21    -1     0     0   502   501  0.000000000E+00  0.000000000E+00  7.685497971E+02  7.685497971E+02  0.000000000E+00  0.00000E+00  9.000E+00
       5    -1     0     0   501     0  0.000000000E+00  0.000000000E+00 -2.382708513E+02  2.382708513E+02  0.000000000E+00  0.00000E+00  9.000E+00
      25     1     1     2     0     0 -2.144022707E+01  9.256021812E+01  6.253412567E+02  6.447509322E+02  1.250000000E+02  0.00000E+00  9.000E+00
      25     1     1     2     0     0 -6.787834977E+01  3.988072751E+00  6.369884798E+01  1.559035546E+02  1.250000000E+02  0.00000E+00  9.000E+00
       5     1     1     2   502     0  8.931857684E+01 -9.654829087E+01 -1.587611588E+02  2.061661616E+02  4.672030912E-06  0.00000E+00  9.000E+00
#rwgt            1           1   4.5835633980815256E-002           8      476153           0
</event>
<event>
      5   9999  3.79277E-02  5.96344E+01 -1.00000E+00  1.34845E-01
      21    -1     0     0   511   501  0.000000000E+00  0.000000000E+00  6.044341255E+01  6.044341255E+01  0.000000000E+00  0.00000E+00  9.000E+00
      21    -1     0     0   501   502  0.000000000E+00  0.000000000E+00 -6.742892691E+02  6.742892691E+02  0.000000000E+00  0.00000E+00  9.000E+00
      25     1     1     2     0     0  1.552118189E+01  4.965344508E+01 -4.617211219E+02  4.811629309E+02  1.250000000E+02  0.00000E+00  9.000E+00
      25     1     1     2     0     0  3.927370898E+01 -2.612075472E+01 -6.653502532E+01  1.492535683E+02  1.250000000E+02  0.00000E+00  9.000E+00
      21     1     1     2   511   502 -5.479489087E+01 -2.353269036E+01 -8.558970942E+01  1.043161825E+02  1.348699152E-06  0.00000E+00  9.000E+00
#rwgt            1           1   4.3205725539774864E-002           8      476276           0
</event>
<event>
      5   9999  3.79277E-02  1.29658E+01 -1.00000E+00  1.83561E-01
      21    -1     0     0   502   501  0.000000000E+00  0.000000000E+00  4.849700566E+02  4.849700566E+02  0.000000000E+00  0.00000E+00  9.000E+00
      21    -1     0     0   512   502  0.000000000E+00  0.000000000E+00 -5.223629073E+02  5.223629073E+02  0.000000000E+00  0.00000E+00  9.000E+00
      25     1     1     2     0     0  3.886151444E+02 -1.149764628E+02  2.056759224E+02  4.713479633E+02  1.250000000E+02  0.00000E+00  9.000E+00
      25     1     1     2     0     0 -3.966503615E+02  1.251522648E+02 -1.775483567E+02  4.691940085E+02  1.250000000E+02  0.00000E+00  9.000E+00
      21     1     1     2   512   501  8.035217135E+00 -1.017580198E+01 -6.552041637E+01  6.679099207E+01  1.348699152E-06  0.00000E+00  9.000E+00
#rwgt            1           1  0.16960010676736173                8      476436           0
</event>
<event>
      5   9999  3.79277E-02  1.43360E+02 -1.00000E+00  1.17178E-01
      21    -1     0     0   502   511  0.000000000E+00  0.000000000E+00  1.552457797E+02  1.552457797E+02  0.000000000E+00  0.00000E+00  9.000E+00
      21    -1     0     0   501   502  0.000000000E+00  0.000000000E+00 -8.605533731E+02  8.605533731E+02  0.000000000E+00  0.00000E+00  9.000E+00
      25     1     1     2     0     0 -1.911864324E+02  2.485797554E+01 -2.169942029E+02  3.160405907E+02  1.250000000E+02  0.00000E+00  9.000E+00
      25     1     1     2     0     0  3.289067981E+02 -6.467204882E+01 -3.548214329E+02  5.038704248E+02  1.250000000E+02  0.00000E+00  9.000E+00
      21     1     1     2   501   511 -1.377203658E+02  3.981407328E+01 -1.334919576E+02  1.958881373E+02  1.907348633E-06  0.00000E+00  9.000E+00
#rwgt            1           1   3.3347074357725055E-002           8      476736           0
</event>
<event>
      5   9999  3.79277E-02  7.18369E+01 -1.00000E+00  1.30653E-01
      21    -1     0     0   502   512  0.000000000E+00  0.000000000E+00  8.452534070E+02  8.452534070E+02  0.000000000E+00  0.00000E+00  9.000E+00
      21    -1     0     0   501   502  0.000000000E+00  0.000000000E+00 -1.133076023E+02  1.133076023E+02  0.000000000E+00  0.00000E+00  9.000E+00
      25     1     1     2     0     0 -1.314069567E+02 -1.050883954E+02  6.321923589E+01  2.189361343E+02  1.250000000E+02  0.00000E+00  9.000E+00
      25     1     1     2     0     0  8.340037412E+01  1.585290995E+02  3.473856501E+02  4.103521508E+02  1.250000000E+02  0.00000E+00  9.000E+00
      21     1     1     2   501   512  4.800658255E+01 -5.344070413E+01  3.213409188E+02  3.292727242E+02  0.000000000E+00  0.00000E+00  9.000E+00
#rwgt            1           1  0.17018421165760467                8      476975           0
</event>
<event>
      5   9999  3.79277E-02  1.17290E+01 -1.00000E+00  1.88077E-01
      21    -1     0     0   502   501  0.000000000E+00  0.000000000E+00  4.378589140E+02  4.378589140E+02  0.000000000E+00  0.00000E+00  9.000E+00
      21    -1     0     0   501   511  0.000000000E+00  0.000000000E+00 -1.657539580E+02  1.657539580E+02  0.000000000E+00  0.00000E+00  9.000E+00
      25     1     1     2     0     0  7.001467013E+01 -4.187053808E+01  2.383993473E+02  2.812729009E+02  1.250000000E+02  0.00000E+00  9.000E+00
      25     1     1     2     0     0 -5.829628078E+01  4.137249223E+01  1.485565220E+02  2.068917100E+02  1.250000000E+02  0.00000E+00  9.000E+00
      21     1     1     2   502   511 -1.171838935E+01  4.980458468E-01 -1.148509133E+02  1.154482611E+02  1.348699152E-06  0.00000E+00  9.000E+00
#rwgt            1           1   9.1552086150706216E-002           8      477125           0
</event>
<event>
      5   9999  3.79277E-02  3.28779E+01 -1.00000E+00  1.50327E-01
      21    -1     0     0   502   501  0.000000000E+00  0.000000000E+00  1.261138034E+03  1.261138034E+03  0.000000000E+00  0.00000E+00  9.000E+00
      21    -1     0     0   512   502  0.000000000E+00  0.000000000E+00 -1.371624904E+02  1.371624904E+02  0.000000000E+00  0.00000E+00  9.000E+00
      25     1     1     2     0     0  3.150896287E+02  1.428787873E+02  7.177624036E+02  8.065380896E+02  1.250000000E+02  0.00000E+00  9.000E+00
      25     1     1     2     0     0 -3.478298611E+02 -1.458838210E+02  3.720135697E+02  5.443223288E+02  1.250000000E+02  0.00000E+00  9.000E+00
      21     1     1     2   512   501  3.274023246E+01  3.005033744E+00  3.419956984E+01  4.744010567E+01  8.259061849E-07  0.00000E+00  9.000E+00
#rwgt            1           1   4.3758258035991392E-002           8      477307           0
</event>
<event>
      5   9999  3.79277E-02  1.68505E+01 -1.00000E+00  1.72753E-01
      21    -1     0     0   502   501  0.000000000E+00  0.000000000E+00  1.230226229E+03  1.230226229E+03  0.000000000E+00  0.00000E+00  9.000E+00
      21    -1     0     0   501   511  0.000000000E+00  0.000000000E+00 -1.567212165E+02  1.567212165E+02  0.000000000E+00  0.00000E+00  9.000E+00
      25     1     1     2     0     0 -9.854622854E+01  1.674929943E+02  4.818843703E+02  5.344181964E+02  1.250000000E+02  0.00000E+00  9.000E+00
      25     1     1     2     0     0  8.282983718E+01 -1.735703789E+02  7.032107184E+02  7.396740991E+02  1.250000000E+02  0.00000E+00  9.000E+00
      21     1     1     2   502   511  1.571639136E+01  6.077384629E+00 -1.115900767E+02  1.128551496E+02  3.814697266E-06  0.00000E+00  9.000E+00
#rwgt            1           1   4.1987911409883193E-002           8      477444           0
</event>
<event>
      5   9999  3.79277E-02  1.00468E+02 -1.00000E+00  1.23737E-01
      21    -1     0     0   512   501  0.000000000E+00  0.000000000E+00  1.062706377E+03  1.062706377E+03  0.000000000E+00  0.00000E+00  9.000E+00
      21    -1     0     0   501   502  0.000000000E+00  0.000000000E+00 -1.352191120E+02  1.352191120E+02  0.000000000E+00  0.00000E+00  9.000E+00
      25     1     1     2     0     0 -5.616456601E+01 -1.702829135E+02  3.198091078E+02  3.873675186E+02  1.250000000E+02  0.00000E+00  9.000E+00
      25     1     1     2     0     0 -4.378110974E+01  1.805108609E+02  3.198201360E+01  2.261610171E+02  1.250000000E+02  0.00000E+00  9.000E+00
      21     1     1     2   512   502  9.994567575E+01 -1.022794745E+01  5.756961434E+02  5.843969529E+02  0.000000000E+00  0.00000E+00  9.000E+00
#rwgt            1           1   3.6389202205044463E-002           8      477605           0
</event>
<event>
      5   9999  3.79277E-02  2.40307E+01 -1.00000E+00  1.60048E-01
      21    -1     0     0   502   501  0.000000000E+00  0.000000000E+00  1.144034319E+02  1.144034319E+02  0.000000000E+00  0.00000E+00  9.000E+00
      21    -1     0     0   511   502  0.000000000E+00  0.000000000E+00 -6.849212944E+02  6.849212944E+02  0.000000000E+00  0.00000E+00  9.000E+00
      25     1     1     2     0     0 -1.430183868E+02  5.908260911E+01 -2.108100058E+02  2.898462906E+02  1.250000000E+02  0.00000E+00  9.000E+00
      25     1     1     2     0     0  1.271940658E+02 -4.099766169E+01 -3.802065822E+01  1.868949145E+02  1.250000000E+02  0.00000E+00  9.000E+00
      21     1     1     2   511   501  1.582432098E+01 -1.808494742E+01 -3.216871984E+02  3.225835211E+02  3.814697266E-06  0.00000E+00  9.000E+00
#rwgt            1           1   4.8411599763503350E-002           8      477767           0
</event>
<event>
      5   9999  3.79277E-02  1.03876E+02 -1.00000E+00  1.23090E-01
      21    -1     0     0   502   501  0.000000000E+00  0.000000000E+00  4.740744596E+02  4.740744596E+02  0.000000000E+00  0.00000E+00  9.000E+00
       2    -1     0     0   501     0  0.000000000E+00  0.000000000E+00 -9.639485541E+02  9.639485541E+02  0.000000000E+00  0.00000E+00  9.000E+00
      25     1     1     2     0     0  1.868075276E+02  2.092036324E+02  9.964167850E+01  3.228260774E+02  1.250000000E+02  0.00000E+00  9.000E+00
      25     1     1     2     0     0 -2.876652062E+02 -2.340634425E+02  1.111785665E+02  4.068447365E+02  1.250000000E+02  0.00000E+00  9.000E+00
       2     1     1     2   502     0  1.008576786E+02  2.485981010E+01 -7.006943394E+02  7.083521997E+02  0.000000000E+00  0.00000E+00  9.000E+00
#rwgt            1           1  0.15349897582847238                8      477942           0
</event>
<event>
      5   9999  3.79277E-02  4.96456E+01 -1.00000E+00  1.39252E-01
      21    -1     0     0   502   501  0.000000000E+00  0.000000000E+00  1.029751174E+02  1.029751174E+02  0.000000000E+00  0.00000E+00  9.000E+00
       2    -1     0     0   501     0  0.000000000E+00  0.000000000E+00 -9.329167885E+02  9.329167885E+02  0.000000000E+00  0.00000E+00  9.000E+00
      25     1     1     2     0     0  2.348299396E+01 -1.996438548E+02 -1.310896169E+02  2.705893705E+02  1.250000000E+02  0.00000E+00  9.000E+00
      25     1     1     2     0     0 -5.771152410E+01  1.636842249E+02 -3.308499788E+02  3.939668184E+02  1.250000000E+02  0.00000E+00  9.000E+00
       2     1     1     2   502     0  3.422853014E+01  3.595962993E+01 -3.680020753E+02  3.713357169E+02  7.629394531E-06  0.00000E+00  9.000E+00
#rwgt            1           1   3.3879843840272608E-002           8      478031           0
</event>
<event>
      5   9999  3.79277E-02  5.39304E+01 -1.00000E+00  1.37226E-01
      21    -1     0     0   502   501  0.000000000E+00  0.000000000E+00  1.311055138E+03  1.311055138E+03  0.000000000E+00  0.00000E+00  9.000E+00
      21    -1     0     0   501   511  0.000000000E+00  0.000000000E+00 -5.101559312E+01  5.101559312E+01  0.000000000E+00  0.00000E+00  9.000E+00
      25     1     1     2     0     0  6.085522664E+01  6.313775944E+01  9.316330336E+02  9.440629453E+02  1.250000000E+02  0.00000E+00  9.000E+00
      25     1     1     2     0     0 -6.832474061E+01 -1.165483890E+02  3.109181002E+02  3.613126931E+02  1.250000000E+02  0.00000E+00  9.000E+00
      21     1     1     2   502   511  7.469513967E+00  5.341062957E+01  1.748841064E+01  5.669509235E+01  1.066240300E-06  0.00000E+00  9.000E+00
#rwgt            1           1   4.4609953192048746E-002           8      478132           0
</event>
<event>
      5   9999  3.79277E-02  3.07808E+01 -1.00000E+00  1.52269E-01
      21    -1     0     0   502   501  0.000000000E+00  0.000000000E+00  9.883456484E+01  9.883456484E+01  0.000000000E+00  0.00000E+00  9.000E+00
      21    -1     0     0   501   512  0.000000000E+00  0.000000000E+00 -5.161005966E+02  5.161005966E+02  0.000000000E+00  0.00000E+00  9.000E+00
      25     1     1     2     0     0 -1.087626502E+02  9.465553202E+01 -7.662290666E+01  2.056332990E+02  1.250000000E+02  0.00000E+00  9.000E+00
      25     1     1     2     0     0  7.813463387E+01 -9.159248448E+01 -1.976349414E+02  2.630185816E+02  1.250000000E+02  0.00000E+00  9.000E+00
      21     1     1     2   502   512  3.062801634E+01 -3.063047543E+00 -1.430081837E+02  1.462832808E+02  0.000000000E+00  0.00000E+00  9.000E+00
#rwgt            1           1   3.4329230720192396E-003           8      478212           0
</event>
<event>
      5   9999  3.79277E-02  9.20362E+00 -1.00000E+00  2.00018E-01
      21    -1     0     0   502   501  0.000000000E+00  0.000000000E+00  6.717775119E+01  6.717775119E+01  0.000000000E+00  0.00000E+00  9.000E+00
      21    -1     0     0   501   511  0.000000000E+00  0.000000000E+00 -4.232951715E+02  4.232951715E+02  0.000000000E+00  0.00000E+00  9.000E+00
      25     1     1     2     0     0  1.034417604E+02 -2.079761520E+01 -1.381469444E+02  2.141081896E+02  1.250000000E+02  0.00000E+00  9.000E+00
      25     1     1     2     0     0 -9.715348150E+01  2.751803948E+01 -2.067632070E+02  2.618626840E+02  1.250000000E+02  0.00000E+00  9.000E+00
      21     1     1     2   502   511 -6.288278934E+00 -6.720424281E+00 -1.120726890E+01  1.450204919E+01  2.920019320E-07  0.00000E+00  9.000E+00
#rwgt            1           1   3.6681624201413403E-002           8      478301           0
</event>
<event>
      5   9999  3.79277E-02  1.32429E+01 -1.00000E+00  1.82637E-01
       2    -1     0     0   502     0  0.000000000E+00  0.000000000E+00  1.306258603E+03  1.306258603E+03  0.000000000E+00  0.00000E+00  9.000E+00
      21    -1     0     0   501   502  0.000000000E+00  0.000000000E+00 -1.420313127E+02  1.420313127E+02  0.000000000E+00  0.00000E+00  9.000E+00
      25     1     1     2     0     0  2.311928070E+02 -9.951014758E+00  2.488811992E+02  3.620994173E+02  1.250000000E+02  0.00000E+00  9.000E+00
      25     1     1     2     0     0 -2.179499675E+02  9.914008292E+00  9.978624603E+01  2.705231428E+02  1.250000000E+02  0.00000E+00  9.000E+00
       2     1     1     2   501     0 -1.324283942E+01  3.700646635E-02  8.155598455E+02  8.156673561E+02  1.078959322E-05  0.00000E+00  9.000E+00
#rwgt            1           1   6.3940625719713012E-002           8      478584           0
</event>
<event>
      5   9999  3.79277E-02  5.19068E+01 -1.00000E+00  1.38154E-01
      21    -1     0     0   502   511  0.000000000E+00  0.000000000E+00  1.046706731E+03  1.046706731E+03  0.000000000E+00  0.00000E+00  9.000E+00
      21    -1     0     0   501   502  0.000000000E+00  0.000000000E+00 -1.578461539E+02  1.578461539E+02  0.000000000E+00  0.00000E+00  9.000E+00
      25     1     1     2     0     0 -8.802027371E+01  1.013307606E+02  1.770186179E+02  2.549040657E+02  1.250000000E+02  0.00000E+00  9.000E+00
      25     1     1     2     0     0  1.102975346E+02 -5.444748448E+01 -5.287760867E+01  1.831696378E+02  1.250000000E+02  0.00000E+00  9.000E+00
      21     1     1     2   501   511 -2.227726093E+01 -4.688327609E+01  7.647195680E+02  7.664791815E+02  1.078959322E-05  0.00000E+00  9.000E+00
#rwgt            1           1   3.9714680578221383E-002           8      478871           0
</event>
<event>
      5   9999  3.79277E-02  1.34974E+02 -1.00000E+00  1.18240E-01
      21    -1     0     0   502   501  0.000000000E+00  0.000000000E+00  1.919059985E+02  1.919059985E+02  0.000000000E+00  0.00000E+00  9.000E+00
      21    -1     0     0   501   512  0.000000000E+00  0.000000000E+00 -4.890734169E+02  4.890734169E+02  0.000000000E+00  0.00000E+00  9.000E+00
      25     1     1     2     0     0 -6.317937778E+01 -1.704981953E+02  9.227444669E+00  2.208425097E+02  1.250000000E+02  0.00000E+00  9.000E+00
      25     1     1     2     0     0 -7.029929503E+01  1.504649748E+02 -1.741188256E+02  2.711532130E+02  1.250000000E+02  0.00000E+00  9.000E+00
      21     1     1     2   502   512  1.334786728E+02  2.003322050E+01 -1.322760375E+02  1.889836927E+02  3.814697266E-06  0.00000E+00  9.000E+00
#rwgt            1           1   3.4370434075038883E-002           8      479099           0
</event>
<event>
      5   9999  3.79277E-02  2.09593E+01 -1.00000E+00  1.64708E-01
      21    -1     0     0   502   501  0.000000000E+00  0.000000000E+00  1.840235417E+02  1.840235417E+02  0.000000000E+00  0.00000E+00  9.000E+00
      21    -1     0     0   501   511  0.000000000E+00  0.000000000E+00 -2.452438367E+02  2.452438367E+02  0.000000000E+00  0.00000E+00  9.000E+00
      25     1     1     2     0     0 -8.846162618E+00 -4.744184556E+01 -1.763385989E+02  2.214707312E+02  1.250000000E+02  0.00000E+00  9.000E+00
      25     1     1     2     0     0  1.941553020E+01  2.934261228E+01  1.286935814E+02  1.828250246E+02  1.250000000E+02  0.00000E+00  9.000E+00
      21     1     1     2   502   511 -1.056936759E+01  1.809923328E+01 -1.357527756E+01  2.497162264E+01  1.685873940E-07  0.00000E+00  9.000E+00
#rwgt            1           1   4.6074426905825618E-002           8      479166           0
</event>
<event>
      5   9999 -3.79277E-02  1.96359E+01 -1.00000E+00  1.67030E-01
      21    -1     0     0   502   512  0.000000000E+00  0.000000000E+00  6.723954668E+02  6.723954668E+02  0.000000000E+00  0.00000E+00  9.000E+00
      21    -1     0     0   501   502  0.000000000E+00  0.000000000E+00 -5.746761914E+02  5.746761914E+02  0.000000000E+00  0.00000E+00  9.000E+00
      25     1     1     2     0     0  6.706180893E+01 -1.477080624E+02 -3.726957614E+02  4.252553215E+02  1.250000000E+02  0.00000E+00  9.000E+00
      25     1     1     2     0     0 -8.665847913E+01  1.489482977E+02 -1.109889293E+02  2.400808818E+02  1.250000000E+02  0.00000E+00  9.000E+00
      21     1     1     2   501   512  1.959667020E+01 -1.240235296E+00  5.814039661E+02  5.817354549E+02  0.000000000E+00  0.00000E+00  9.000E+00
#rwgt            1           1 -0.22174832139527112                8      479326           0
</event>
<event>
      5   9999  3.79277E-02  2.37448E+02 -1.00000E+00  1.09000E-01
      21    -1     0     0   502   501  0.000000000E+00  0.000000000E+00  3.151567943E+02  3.151567943E+02  0.000000000E+00  0.00000E+00  9.000E+00
      21    -1     0     0   511   502  0.000000000E+00  0.000000000E+00 -7.387627531E+02  7.387627531E+02  0.000000000E+00  0.00000E+00  9.000E+00
      25     1     1     2     0     0  1.056748008E+02 -3.574126824E+02  7.643352840E-01  3.931114006E+02  1.250000000E+02  0.00000E+00  9.000E+00
      25     1     1     2     0     0  8.739911193E+01  2.191952905E+02 -2.541529457E+02  3.686514614E+02  1.250000000E+02  0.00000E+00  9.000E+00
      21     1     1     2   511   501 -1.930739128E+02  1.382173919E+02 -1.702173483E+02  2.921566855E+02  3.303624740E-06  0.00000E+00  9.000E+00
#rwgt            1           1   6.3136446209170222E-002           8      479479           0
</event>
<event>
      5   9999  3.79277E-02  5.44553E+01 -1.00000E+00  1.36993E-01
       1    -1     0     0   502     0  0.000000000E+00  0.000000000E+00  4.263211186E+02  4.263211186E+02  0.000000000E+00  0.00000E+00  9.000E+00
      21    -1     0     0   501   502  0.000000000E+00  0.000000000E+00 -3.619806312E+02  3.619806312E+02  0.000000000E+00  0.00000E+00  9.000E+00
      25     1     1     2     0     0  6.161892693E+01 -6.058658854E+01  1.840924267E+02  2.387103861E+02  1.250000000E+02  0.00000E+00  9.000E+00
      25     1     1     2     0     0 -7.696218054E+00  6.818381867E+01 -3.155973058E+02  3.463162201E+02  1.250000000E+02  0.00000E+00  9.000E+00
       1     1     1     2   501     0 -5.392270887E+01 -7.597230137E+00  1.958453664E+02  2.032751436E+02  0.000000000E+00  0.00000E+00  9.000E+00
#rwgt            1           1   4.4634608104302129E-002           8      479581           0
</event>
<event>
      5   9999 -3.79277E-02  6.70106E+01 -1.00000E+00  1.32188E-01
       2    -1     0     0   502     0  0.000000000E+00  0.000000000E+00  1.549424322E+03  1.549424322E+03  0.000000000E+00  0.00000E+00  9.000E+00
      21    -1     0     0   501   502  0.000000000E+00  0.000000000E+00 -1.206666076E+02  1.206666076E+02  0.000000000E+00  0.00000E+00  9.000E+00
      25     1     1     2     0     0 -1.311927552E+01  2.387067151E+02  2.673326677E+02  3.797956904E+02  1.250000000E+02  0.00000E+00  9.000E+00
      25     1     1     2     0     0  6.994687373E+01 -2.742178378E+02  3.160467249E+02  4.422652146E+02  1.250000000E+02  0.00000E+00  9.000E+00
       2     1     1     2   501     0 -5.682759820E+01  3.551112271E+01  8.453783220E+02  8.480300249E+02  1.525878906E-05  0.00000E+00  9.000E+00
#rwgt            1           1  -9.5259275444002783E-002           8      479832           0
</event>
<event>
      5   9999  3.79277E-02  2.10176E+01 -1.00000E+00  1.64610E-01
       2    -1     0     0   502     0  0.000000000E+00  0.000000000E+00  3.168049472E+03  3.168049472E+03  0.000000000E+00  0.00000E+00  9.000E+00
      21    -1     0     0   501   502  0.000000000E+00  0.000000000E+00 -1.841105023E+01  1.841105023E+01  0.000000000E+00  0.00000E+00  9.000E+00
      25     1     1     2     0     0  6.596410387E+01 -4.218914688E+01  3.456261703E+02  3.757840293E+02  1.250000000E+02  0.00000E+00  9.000E+00
      25     1     1     2     0     0 -8.667135546E+01  3.859082280E+01  1.916052430E+03  1.922467968E+03  1.250000000E+02  0.00000E+00  9.000E+00
       2     1     1     2   501     0  2.070725158E+01  3.598324077E+00  8.879598212E+02  8.882085241E+02  1.525878906E-05  0.00000E+00  9.000E+00
#rwgt            1           1   9.3077172423675178E-002           8      479974           0
</event>
<event>
      5   9999  3.79277E-02  1.16848E+02 -1.00000E+00  1.20861E-01
       2    -1     0     0   502     0  0.000000000E+00  0.000000000E+00  2.545765382E+03  2.545765382E+03  0.000000000E+00  0.00000E+00  9.000E+00
      21    -1     0     0   501   502  0.000000000E+00  0.000000000E+00 -6.487577905E+01  6.487577905E+01  0.000000000E+00  0.00000E+00  9.000E+00
      25     1     1     2     0     0 -3.689747292E+01 -2.462431263E+02  5.313800463E+02  5.999890452E+02  1.250000000E+02  0.00000E+00  9.000E+00
      25     1     1     2     0     0  9.084074977E+01  1.425914389E+02  3.603818351E+02  4.172342596E+02  1.250000000E+02  0.00000E+00  9.000E+00
       2     1     1     2   501     0 -5.394327686E+01  1.036516874E+02  1.589127721E+03  1.593417856E+03  3.737624730E-05  0.00000E+00  9.000E+00
#rwgt            1           1   4.1080387931251731E-002           8      480177           0
</event>
<event>
      5   9999  3.79277E-02  8.64090E+01 -1.00000E+00  1.26750E-01
      21    -1     0     0   511   501  0.000000000E+00  0.000000000E+00  5.454828838E+01  5.454828838E+01  0.000000000E+00  0.00000E+00  9.000E+00
      21    -1     0     0   501   502  0.000000000E+00  0.000000000E+00 -1.822016593E+03  1.822016593E+03  0.000000000E+00  0.00000E+00  9.000E+00
      25     1     1     2     0     0  9.473800436E+01  1.137288630E+02 -1.159195440E+03  1.175273845E+03  1.250000000E+02  0.00000E+00  9.000E+00
      25     1     1     2     0     0 -3.541927723E+01 -1.765604419E+02 -5.620724647E+02  6.033063653E+02  1.250000000E+02  0.00000E+00  9.000E+00
      21     1     1     2   511   502 -5.931872713E+01  6.283157891E+01 -4.620039973E+01  9.798467039E+01  2.132480600E-06  0.00000E+00  9.000E+00
#rwgt            1           1   3.7782881307726106E-002           8      480265           0
</event>
<event>
      5   9999  3.79277E-02  2.47200E+02 -1.00000E+00  1.08398E-01
      21    -1     0     0   502   501  0.000000000E+00  0.000000000E+00  5.368488650E+02  5.368488650E+02  0.000000000E+00  0.00000E+00  9.000E+00
      21    -1     0     0   501   512  0.000000000E+00  0.000000000E+00 -6.120808853E+02  6.120808853E+02  0.000000000E+00  0.00000E+00  9.000E+00
      25     1     1     2     0     0 -1.487536187E+02 -1.812685250E+02  1.180079536E+02  2.907521184E+02  1.250000000E+02  0.00000E+00  9.000E+00
      25     1     1     2     0     0  2.863834074E+02 -2.407470045E+01  2.156106583E+02  3.804050515E+02  1.250000000E+02  0.00000E+00  9.000E+00
      21     1     1     2   502   512 -1.376297886E+02  2.053432255E+02 -4.088506323E+02  4.777725803E+02  0.000000000E+00  0.00000E+00  9.000E+00
#rwgt            2          11   2.7551990534839966E-003           8      480308           0
</event>
<event>
      5   9999  3.79277E-02  3.54168E+01 -1.00000E+00  1.48196E-01
      21    -1     0     0   502   511  0.000000000E+00  0.000000000E+00  4.176110268E+01  4.176110268E+01  0.000000000E+00  0.00000E+00  9.000E+00
      21    -1     0     0   501   502  0.000000000E+00  0.000000000E+00 -1.639059410E+03  1.639059410E+03  0.000000000E+00  0.00000E+00  9.000E+00
      25     1     1     2     0     0 -5.771353635E+01 -2.129520765E+02 -8.714946042E+02  9.076383004E+02  1.250000000E+02  0.00000E+00  9.000E+00
      25     1     1     2     0     0  2.967231631E+01  1.913177969E+02 -6.459254664E+02  6.858043846E+02  1.250000000E+02  0.00000E+00  9.000E+00
      21     1     1     2   501   511  2.804122004E+01  2.163427961E+01 -7.987823660E+01  8.737782761E+01  2.132480600E-06  0.00000E+00  9.000E+00
#rwgt            1           1   7.3985749529688425E-003           8      480433           0
</event>
<event>
      5   9999  3.79277E-02  4.62907E+01 -1.00000E+00  1.41013E-01
      21    -1     0     0   502   512  0.000000000E+00  0.000000000E+00  3.115169448E+02  3.115169448E+02  0.000000000E+00  0.00000E+00  9.000E+00
      21    -1     0     0   501   502  0.000000000E+00  0.000000000E+00 -6.801417651E+02  6.801417651E+02  0.000000000E+00  0.00000E+00  9.000E+00
      25     1     1     2     0     0  2.038362024E+02 -5.741446373E+01 -2.026141845E+02  3.186269383E+02  1.250000000E+02  0.00000E+00  9.000E+00
      25     1     1     2     0     0 -2.485454517E+02  4.541809382E+01 -3.692701986E+02  4.645676747E+02  1.250000000E+02  0.00000E+00  9.000E+00
      21     1     1     2   501   512  4.470924934E+01  1.199636992E+01  2.032595628E+02  2.084640970E+02  3.814697266E-06  0.00000E+00  9.000E+00
#rwgt            1           1  0.29895542038757672                8      480639           0
</event>
<event>
      5   9999  3.79277E-02  1.49429E+01 -1.00000E+00  1.77540E-01
      21    -1     0     0   502   511  0.000000000E+00  0.000000000E+00  1.358854137E+02  1.358854137E+02  0.000000000E+00  0.00000E+00  9.000E+00
      21    -1     0     0   501   502  0.000000000E+00  0.000000000E+00 -4.018208036E+02  4.018208036E+02  0.000000000E+00  0.00000E+00  9.000E+00
      25     1     1     2     0     0  6.726194061E+01  9.745406467E+01 -2.830672671E+02  3.313209035E+02  1.250000000E+02  0.00000E+00  9.000E+00
      25     1     1     2     0     0 -7.754412265E+01 -1.082968929E+02 -1.284799567E+00  1.826689866E+02  1.250000000E+02  0.00000E+00  9.000E+00
      21     1     1     2   501   511  1.028218203E+01  1.084282824E+01  1.841667680E+01  2.371632720E+01  2.384185791E-07  0.00000E+00  9.000E+00
#rwgt            1           1   4.1497108821142464E-002           8      480963           0
</event>
<event>
      5   9999  3.79277E-02  2.12755E+02 -1.00000E+00  1.10679E-01
      21    -1     0     0   502   501  0.000000000E+00  0.000000000E+00  1.767542437E+02  1.767542437E+02  0.000000000E+00  0.00000E+00  9.000E+00
       1    -1     0     0   501     0  0.000000000E+00  0.000000000E+00 -1.687711600E+03  1.687711600E+03  0.000000000E+00  0.00000E+00  9.000E+00
      25     1     1     2     0     0  3.545642657E+02 -2.362569220E+02 -5.569716942E+02  7.123030393E+02  1.250000000E+02  0.00000E+00  9.000E+00
      25     1     1     2     0     0 -2.035934888E+02  8.634827118E+01 -8.964747502E+02  9.317715978E+02  1.250000000E+02  0.00000E+00  9.000E+00
       1     1     1     2   502     0 -1.509707769E+02  1.499086508E+02 -5.751091225E+01  2.203912069E+02  3.568322551E-06  0.00000E+00  9.000E+00
#rwgt            1           1   3.2984255902777537E-002           8      481226           0
</event>
<event>
      5   9999  3.79277E-02  1.72078E+02 -1.00000E+00  1.14078E-01
      21    -1     0     0   502   501  0.000000000E+00  0.000000000E+00  6.659394506E+02  6.659394506E+02  0.000000000E+00  0.00000E+00  9.000E+00
       5    -1     0     0   501     0  0.000000000E+00  0.000000000E+00 -3.464554710E+02  3.464554710E+02  0.000000000E+00  0.00000E+00  9.000E+00
      25     1     1     2     0     0 -1.191917686E+02 -1.385823282E+02  1.229299468E+02  2.532755638E+02  1.250000000E+02  0.00000E+00  9.000E+00
      25     1     1     2     0     0  9.322075716E+01 -3.152436974E+01  4.360784417E+02  4.641910197E+02  1.250000000E+02  0.00000E+00  9.000E+00
       5     1     1     2   502     0  2.597101148E+01  1.701066979E+02 -2.395244089E+02  2.949283380E+02  4.672030912E-06  0.00000E+00  9.000E+00
#rwgt            1           1   3.8458105059302555E-002           8      481381           0
</event>
<event>
      5   9999  3.79277E-02  2.69815E+01 -1.00000E+00  1.56309E-01
       2    -1     0     0   502     0  0.000000000E+00  0.000000000E+00  1.933261499E+02  1.933261499E+02  0.000000000E+00  0.00000E+00  9.000E+00
      21    -1     0     0   501   502  0.000000000E+00  0.000000000E+00 -1.893691987E+02  1.893691987E+02  0.000000000E+00  0.00000E+00  9.000E+00
      25     1     1     2     0     0 -5.290081170E+01  5.508832631E+01  6.356403174E+01  1.596828285E+02  1.250000000E+02  0.00000E+00  9.000E+00
      25     1     1     2     0     0  2.652323087E+01 -6.076499109E+01 -1.008292337E+02  1.737452166E+02  1.250000000E+02  0.00000E+00  9.000E+00
       2     1     1     2   501     0  2.637758083E+01  5.676664776E+00  4.122215314E+01  4.926730359E+01  8.259061849E-07  0.00000E+00  9.000E+00
#rwgt            1           1   4.3044655237592329E-002           8      481454           0
</event>
<event>
      5   9999  3.79277E-02  5.69587E+01 -1.00000E+00  1.35922E-01
       2    -1     0     0   502     0  0.000000000E+00  0.000000000E+00  1.601505017E+03  1.601505017E+03  0.000000000E+00  0.00000E+00  9.000E+00
      21    -1     0     0   501   502  0.000000000E+00  0.000000000E+00 -1.228746621E+02  1.228746621E+02  0.000000000E+00  0.00000E+00  9.000E+00
      25     1     1     2     0     0  1.444907517E+02  6.924122053E+01  4.364953749E+02  4.814822284E+02  1.250000000E+02  0.00000E+00  9.000E+00
      25     1     1     2     0     0 -1.631663760E+02 -1.230512056E+02  4.452701286E+01  2.436647704E+02  1.250000000E+02  0.00000E+00  9.000E+00
       2     1     1     2   501     0  1.867562431E+01  5.380998506E+01  9.976079676E+02  9.992326808E+02  1.525878906E-05  0.00000E+00  9.000E+00
#rwgt            1           1   3.4926996895721353E-002           8      481577           0
</event>
<event>
      5   9999  3.79277E-02  5.29540E+01 -1.00000E+00  1.37668E-01
      21    -1     0     0   502   501  0.000000000E+00  0.000000000E+00  2.243526681E+02  2.243526681E+02  0.000000000E+00  0.00000E+00  9.000E+00
      21    -1     0     0   501   511  0.000000000E+00  0.000000000E+00 -2.981884422E+02  2.981884422E+02  0.000000000E+00  0.00000E+00  9.000E+00
      25     1     1     2     0     0  5.404052675E+01 -4.234330107E+01  1.057755905E+02  1.775579039E+02  1.250000000E+02  0.00000E+00  9.000E+00
      25     1     1     2     0     0 -9.376036635E+01  7.736414074E+01 -1.843561756E+01  1.753313679E+02  1.250000000E+02  0.00000E+00  9.000E+00
      21     1     1     2   502   511  3.971983959E+01 -3.502083966E+01 -1.611757471E+02  1.696518385E+02  0.000000000E+00  0.00000E+00  9.000E+00
#rwgt            1           1   4.5303701825418596E-002           8      481699           0
</event>
<event>
      5   9999  3.79277E-02  7.60420E+00 -1.00000E+00  2.10594E-01
      21    -1     0     0   502   512  0.000000000E+00  0.000000000E+00  2.717352459E+02  2.717352459E+02  0.000000000E+00  0.00000E+00  9.000E+00
      21    -1     0     0   501   502  0.000000000E+00  0.000000000E+00 -3.574298741E+02  3.574298741E+02  0.000000000E+00  0.00000E+00  9.000E+00
      25     1     1     2     0     0 -5.628333041E+01  6.890183474E+01 -2.583644139E+02  3.004870155E+02  1.250000000E+02  0.00000E+00  9.000E+00
      25     1     1     2     0     0  5.752598078E+01 -7.640381599E+01  1.558821562E+00  1.573982576E+02  1.250000000E+02  0.00000E+00  9.000E+00
      21     1     1     2   501   512 -1.242650368E+00  7.501981243E+00  1.711109642E+02  1.712798469E+02  1.907348633E-06  0.00000E+00  9.000E+00
#rwgt            1           1   4.8678889899527900E-002           8      481781           0
</event>
<event>
      5   9999  3.79277E-02  1.50896E+01 -1.00000E+00  1.77140E-01
      21    -1     0     0   511   501  0.000000000E+00  0.000000000E+00  2.087288707E+02  2.087288707E+02  0.000000000E+00  0.00000E+00  9.000E+00
      21    -1     0     0   501   502  0.000000000E+00  0.000000000E+00 -3.596735578E+02  3.596735578E+02  0.000000000E+00  0.00000E+00  9.000E+00
      25     1     1     2     0     0  1.457462133E+02  5.885673156E+01 -1.832786727E+02  2.718862730E+02  1.250000000E+02  0.00000E+00  9.000E+00
      25     1     1     2     0     0 -1.437882594E+02 -4.389468960E+01 -5.877973600E+01  2.041613692E+02  1.250000000E+02  0.00000E+00  9.000E+00
      21     1     1     2   511   502 -1.957953935E+00 -1.496204197E+01  9.111372164E+01  9.235478631E+01  0.000000000E+00  0.00000E+00  9.000E+00
#rwgt            1           1   4.3027121495062909E-002           8      482128           0
</event>
<event>
      5   9999  3.79277E-02  5.93394E+01 -1.00000E+00  1.34961E-01
      21    -1     0     0   502   501  0.000000000E+00  0.000000000E+00  5.506410577E+02  5.506410577E+02  0.000000000E+00  0.00000E+00  9.000E+00
      21    -1     0     0   501   512  0.000000000E+00  0.000000000E+00 -1.040576161E+02  1.040576161E+02  0.000000000E+00  0.00000E+00  9.000E+00
      25     1     1     2     0     0  1.582216893E+02  4.267896772E+01  2.901128144E+02  3.558736325E+02  1.250000000E+02  0.00000E+00  9.000E+00
      25     1     1     2     0     0 -9.935648084E+01 -5.016543949E+01  1.693519024E+02  2.381036507E+02  1.250000000E+02  0.00000E+00  9.000E+00
      21     1     1     2   502   512 -5.886520841E+01  7.486471767E+00 -1.288127532E+01  6.072139058E+01  1.327458468E-06  0.00000E+00  9.000E+00
#rwgt            1           1   3.7740015390370384E-002           8      482250           0
</event>
<event>
      5   9999  3.79277E-02  6.75571E+01 -1.00000E+00  1.32007E-01
      21    -1     0     0   502   501  0.000000000E+00  0.000000000E+00  1.419856872E+03  1.419856872E+03  0.000000000E+00  0.00000E+00  9.000E+00
      21    -1     0     0   501   511  0.000000000E+00  0.000000000E+00 -9.650596387E+01  9.650596387E+01  0.000000000E+00  0.00000E+00  9.000E+00
      25     1     1     2     0     0 -6.262839017E+01 -8.118447215E+01  9.878239930E+02  1.000966770E+03  1.250000000E+02  0.00000E+00  9.000E+00
      25     1     1     2     0     0  1.251371279E+02  1.068091082E+02  3.813750411E+02  4.337503987E+02  1.250000000E+02  0.00000E+00  9.000E+00
      21     1     1     2   502   511 -6.250873777E+01 -2.562463603E+01 -4.584812607E+01  8.164566696E+01  2.336015456E-06  0.00000E+00  9.000E+00
#rwgt            1           1   5.2159883326274019E-002           8      482346           0
</event>
<event>
      5   9999  3.79277E-02  1.05135E+02 -1.00000E+00  1.22858E-01
       4    -1     0     0   502     0  0.000000000E+00  0.000000000E+00  3.757544488E+02  3.757544488E+02  0.000000000E+00  0.00000E+00  9.000E+00
      21    -1     0     0   501   502  0.000000000E+00  0.000000000E+00 -4.096848036E+02  4.096848036E+02  0.000000000E+00  0.00000E+00  9.000E+00
      25     1     1     2     0     0 -5.169079400E+01 -2.950532177E+01  1.565927490E+02  2.090186385E+02  1.250000000E+02  0.00000E+00  9.000E+00
      25     1     1     2     0     0  1.540346781E+02  5.357084407E+01 -3.378488558E+02  3.954280804E+02  1.250000000E+02  0.00000E+00  9.000E+00
       4     1     1     2   501     0 -1.023438841E+02 -2.406552230E+01  1.473257521E+02  1.809925336E+02  3.303624740E-06  0.00000E+00  9.000E+00
#rwgt            1           1   3.8316556936945974E-002           8      482402           0
</event>
<event>
      5   9999  3.79277E-02  4.02284E+01 -1.00000E+00  1.44687E-01
      21    -1     0     0   502   501  0.000000000E+00  0.000000000E+00  5.024126217E+01  5.024126217E+01  0.000000000E+00  0.00000E+00  9.000E+00
      21    -1     0     0   501   511  0.000000000E+00  0.000000000E+00 -1.019836787E+03  1.019836787E+03  0.000000000E+00  0.00000E+00  9.000E+00
      25     1     1     2     0     0 -1.578518493E+02 -4.611246523E+01 -2.925146229E+02  3.580968730E+02  1.250000000E+02  0.00000E+00  9.000E+00
      25     1     1     2     0     0  1.240791722E+02  2.425543089E+01 -5.091241317E+02  5.392739085E+02  1.250000000E+02  0.00000E+00  9.000E+00
      21     1     1     2   502   511  3.377267720E+01  2.185703434E+01 -1.679567701E+02  1.727072677E+02  3.303624740E-06  0.00000E+00  9.000E+00
#rwgt            1           1   5.0854203039056176E-002           8      482508           0
</event>
<event>
      5   9999  3.79277E-02  2.50918E+01 -1.00000E+00  1.58632E-01
      21    -1     0     0   512   501  0.000000000E+00  0.000000000E+00  3.608871246E+02  3.608871246E+02  0.000000000E+00  0.00000E+00  9.000E+00
      21    -1     0     0   501   502  0.000000000E+00  0.000000000E+00 -1.501033843E+02  1.501033843E+02  0.000000000E+00  0.00000E+00  9.000E+00
      25     1     1     2     0     0 -1.451208185E+02  5.398895341E-01 -1.388571514E+01  1.920368624E+02  1.250000000E+02  0.00000E+00  9.000E+00
      25     1     1     2     0     0  1.538453684E+02  2.298624927E+01  2.108445918E+02  2.903053684E+02  1.250000000E+02  0.00000E+00  9.000E+00
      21     1     1     2   512   502 -8.724549945E+00 -2.352613881E+01  1.382486358E+01  2.864827799E+01  5.057621821E-07  0.00000E+00  9.000E+00
#rwgt            1           1   4.2974141885820570E-002           8      482783           0
</event>
<event>
      5   9999  3.79277E-02  2.15817E+02 -1.00000E+00  1.10458E-01
      21    -1     0     0   502   511  0.000000000E+00  0.000000000E+00  1.654974723E+03  1.654974723E+03  0.000000000E+00  0.00000E+00  9.000E+00
      21    -1     0     0   501   502  0.000000000E+00  0.000000000E+00 -3.319797461E+02  3.319797461E+02  0.000000000E+00  0.00000E+00  9.000E+00
      25     1     1     2     0     0  1.510710414E+01 -8.144104089E+01  3.781915352E+02  4.068349850E+02  1.250000000E+02  0.00000E+00  9.000E+00
      25     1     1     2     0     0  2.006215701E+02  7.527598210E+01 -2.581118642E+02  3.579975171E+02  1.250000000E+02  0.00000E+00  9.000E+00
      21     1     1     2   501   511 -2.157286742E+02  6.165058799E+00  1.202915306E+03  1.222121967E+03  1.525878906E-05  0.00000E+00  9.000E+00
#rwgt            1           1   3.9374618866006073E-002           8      482951           0
</event>
<event>
      5   9999  3.79277E-02  7.02271E+01 -1.00000E+00  1.31149E-01
      21    -1     0     0   502   501  0.000000000E+00  0.000000000E+00  2.588978371E+02  2.588978371E+02  0.000000000E+00  0.00000E+00  9.000E+00
      21    -1     0     0   512   502  0.000000000E+00  0.000000000E+00 -1.558770609E+03  1.558770609E+03  0.000000000E+00  0.00000E+00  9.000E+00
      25     1     1     2     0     0  2.136825633E+01 -2.128700642E+01 -9.379491809E+01  1.591610055E+02  1.250000000E+02  0.00000E+00  9.000E+00
      25     1     1     2     0     0 -5.973097194E+00 -4.723187817E+01  2.054925481E+02  2.451911816E+02  1.250000000E+02  0.00000E+00  9.000E+00
      21     1     1     2   512   501 -1.539515914E+01  6.851888460E+01 -1.411570402E+03  1.413316259E+03  0.000000000E+00  0.00000E+00  9.000E+00
#rwgt            1           1   2.5862105916509951E-002           8      483171           0
</event>
<event>
      5   9999  3.79277E-02  1.13279E+02 -1.00000E+00  1.21440E-01
      21    -1     0     0   511   501  0.000000000E+00  0.000000000E+00  9.936991234E+02  9.936991234E+02  0.000000000E+00  0.00000E+00  9.000E+00
      21    -1     0     0   501   502  0.000000000E+00  0.000000000E+00 -2.650456531E+02  2.650456531E+02  0.000000000E+00  0.00000E+00  9.000E+00
      25     1     1     2     0     0 -2.497449965E+02  1.599732448E+01 -2.194552196E+01  2.805977255E+02  1.250000000E+02  0.00000E+00  9.000E+00
      25     1     1     2     0     0  3.327732621E+02  6.106358768E+01  1.928332987E+02  4.089944826E+02  1.250000000E+02  0.00000E+00  9.000E+00
      21     1     1     2   511   502 -8.302826561E+01 -7.706091216E+01  5.577656937E+02  5.691525684E+02  7.629394531E-06  0.00000E+00  9.000E+00
#rwgt            1           1   4.0904637104127985E-002           8      483348           0
</event>
<event>
      5   9999  3.79277E-02  4.50538E+01 -1.00000E+00  1.41707E-01
      21    -1     0     0   512   501  0.000000000E+00  0.000000000E+00  1.203530623E+03  1.203530623E+03  0.000000000E+00  0.00000E+00  9.000E+00
      21    -1     0     0   501   502  0.000000000E+00  0.000000000E+00 -5.185202309E+02  5.185202309E+02  0.000000000E+00  0.00000E+00  9.000E+00
      25     1     1     2     0     0  1.067110733E+02  1.790183660E+02 -3.835629119E+02  4.540708490E+02  1.250000000E+02  0.00000E+00  9.000E+00
      25     1     1     2     0     0 -6.324392485E+01 -1.908697774E+02  4.204793281E+01  2.404664105E+02  1.250000000E+02  0.00000E+00  9.000E+00
      21     1     1     2   512   502 -4.346714843E+01  1.185141141E+01  1.026525371E+03  1.027513595E+03  1.525878906E-05  0.00000E+00  9.000E+00
#rwgt            1           1   3.2647657169247155E-002           8      483442           0
</event>
<event>
      5   9999  3.79277E-02  3.40327E+01 -1.00000E+00  1.49330E-01
      21    -1     0     0   502   501  0.000000000E+00  0.000000000E+00  2.204567094E+01  2.204567094E+01  0.000000000E+00  0.00000E+00  9.000E+00
      21    -1     0     0   511   502  0.000000000E+00  0.000000000E+00 -2.723655653E+03  2.723655653E+03  0.000000000E+00  0.00000E+00  9.000E+00
      25     1     1     2     0     0 -4.387911594E+01 -7.104342209E+01 -2.966652958E+02  3.325775735E+02  1.250000000E+02  0.00000E+00  9.000E+00
      25     1     1     2     0     0  3.064229912E+01  1.023964341E+02 -2.003402104E+03  2.010141530E+03  1.250000000E+02  0.00000E+00  9.000E+00
      21     1     1     2   511   501  1.323681682E+01 -3.135301203E+01 -4.015425820E+02  4.029822203E+02  0.000000000E+00  0.00000E+00  9.000E+00
#rwgt            1           1   9.3526499412799169E-002           8      483565           0
</event>
<event>
      5   9999  3.79277E-02  1.07411E+01 -1.00000E+00  1.92235E-01
      21    -1     0     0   502   512  0.000000000E+00  0.000000000E+00  9.119136501E+01  9.119136501E+01  0.000000000E+00  0.00000E+00  9.000E+00
      21    -1     0     0   501   502  0.000000000E+00  0.000000000E+00 -1.194403825E+03  1.194403825E+03  0.000000000E+00  0.00000E+00  9.000E+00
      25     1     1     2     0     0  1.968449561E+02  6.797884312E+01 -9.805442537E+02  1.010178743E+03  1.250000000E+02  0.00000E+00  9.000E+00
      25     1     1     2     0     0 -1.888121303E+02 -6.084822306E+01 -1.105631272E+02  2.592329684E+02  1.250000000E+02  0.00000E+00  9.000E+00
      21     1     1     2   501   512 -8.032825782E+00 -7.130620051E+00 -1.210507902E+01  1.618347832E+01  2.384185791E-07  0.00000E+00  9.000E+00
#rwgt            1           1   5.2211957868591792E-002           8      483673           0
</event>
<event>
      5   9999  3.79277E-02  9.49911E+01 -1.00000E+00  1.24840E-01
      21    -1     0     0   502   511  0.000000000E+00  0.000000000E+00  1.074239763E+02  1.074239763E+02  0.000000000E+00  0.00000E+00  9.000E+00
      21    -1     0     0   501   502  0.000000000E+00  0.000000000E+00 -1.767704478E+03  1.767704478E+03  0.000000000E+00  0.00000E+00  9.000E+00
      25     1     1     2     0     0  2.255058575E+02  6.185316563E+01 -1.142150755E+03  1.172523796E+03  1.250000000E+02  0.00000E+00  9.000E+00
      25     1     1     2     0     0 -2.663291788E+02 -1.476247694E+02 -5.103515147E+02  6.072956220E+02  1.250000000E+02  0.00000E+00  9.000E+00
      21     1     1     2   501   511  4.082332125E+01  8.577160377E+01 -7.778232742E+00  9.530903670E+01  1.825498680E-06  0.00000E+00  9.000E+00
#rwgt            1           1  0.22508701749849172                8      483886           0
</event>
<event>
      5   9999  3.79277E-02  1.93044E+01 -1.00000E+00  1.67648E-01
      21    -1     0     0   512   501  0.000000000E+00  0.000000000E+00  1.309757854E+03  1.309757854E+03  0.000000000E+00  0.00000E+00  9.000E+00
      21    -1     0     0   501   502  0.000000000E+00  0.000000000E+00 -4.097346770E+01  4.097346770E+01  0.000000000E+00  0.00000E+00  9.000E+00
      25     1     1     2     0     0 -1.431807303E+02  3.279520081E+01  9.063057532E+02  9.266020532E+02  1.250000000E+02  0.00000E+00  9.000E+00
      25     1     1     2     0     0  1.239477118E+02 -3.113606648E+01  2.353611686E+02  2.955543429E+02  1.250000000E+02  0.00000E+00  9.000E+00
      21     1     1     2   512   502  1.923301845E+01 -1.659134330E+00  1.271174648E+02  1.285749259E+02  0.000000000E+00  0.00000E+00  9.000E+00
#rwgt            1           1   4.4255321028764068E-002           8      483944           0
</event>
<event>
      5   9999  3.79277E-02  1.39023E+01 -1.00000E+00  1.80550E-01
      21    -1     0     0   502   511  0.000000000E+00  0.000000000E+00  9.283171708E+01  9.283171708E+01  0.000000000E+00  0.00000E+00  9.000E+00
      21    -1     0     0   501   502  0.000000000E+00  0.000000000E+00 -4.514866304E+02  4.514866304E+02  0.000000000E+00  0.00000E+00  9.000E+00
      25     1     1     2     0     0 -6.519456310E+01  6.800721310E+00 -2.256617632E+01  1.429363956E+02  1.250000000E+02  0.00000E+00  9.000E+00
      25     1     1     2     0     0  6.813253646E+01 -2.038900814E+01 -3.520042527E+02  3.802495866E+02  1.250000000E+02  0.00000E+00  9.000E+00
      21     1     1     2   501   511 -2.937973364E+00  1.358828683E+01  1.591551567E+01  2.113236535E+01  2.384185791E-07  0.00000E+00  9.000E+00
#rwgt            1           1   3.3675948146275121E-002           8      484106           0
</event>
<event>
      5   9999  3.79277E-02  8.11529E+01 -1.00000E+00  1.28049E-01
      21    -1     0     0   512   501  0.000000000E+00  0.000000000E+00  2.762019508E+02  2.762019508E+02  0.000000000E+00  0.00000E+00  9.000E+00
      21    -1     0     0   501   502  0.000000000E+00  0.000000000E+00 -3.274740275E+02  3.274740275E+02  0.000000000E+00  0.00000E+00  9.000E+00
      25     1     1     2     0     0  2.106813156E+01 -4.124590327E+01  6.365443520E+01  1.477226382E+02  1.250000000E+02  0.00000E+00  9.000E+00
      25     1     1     2     0     0 -6.516042398E+01  1.093756417E+02 -2.447330915E+02  3.028666339E+02  1.250000000E+02  0.00000E+00  9.000E+00
      21     1     1     2   512   502  4.409229242E+01 -6.812973847E+01  1.298065797E+02  1.530867063E+02  0.000000000E+00  0.00000E+00  9.000E+00
#rwgt            1           1   3.2503811028795307E-002           8      484346           0
</event>
<event>
      5   9999  3.79277E-02  2.42759E+01 -1.00000E+00  1.59713E-01
      21    -1     0     0   502   501  0.000000000E+00  0.000000000E+00  1.373595606E+02  1.373595606E+02  0.000000000E+00  0.00000E+00  9.000E+00
      21    -1     0     0   511   502  0.000000000E+00  0.000000000E+00 -4.315936493E+02  4.315936493E+02  0.000000000E+00  0.00000E+00  9.000E+00
      25     1     1     2     0     0  4.759398292E+01 -1.841759000E+01  6.373910124E+01  1.493052841E+02  1.250000000E+02  0.00000E+00  9.000E+00
      25     1     1     2     0     0 -6.419763206E+01  3.612744988E+01 -1.444085204E+02  2.047079612E+02  1.250000000E+02  0.00000E+00  9.000E+00
      21     1     1     2   511   501  1.660364914E+01 -1.770985988E+01 -2.135646696E+02  2.149399646E+02  0.000000000E+00  0.00000E+00  9.000E+00
#rwgt            1           1   4.2921385259868751E-002           8      484392           0
</event>
<event>
      5   9999  3.79277E-02  5.43131E+01 -1.00000E+00  1.37056E-01
      21    -1     0     0   502   501  0.000000000E+00  0.000000000E+00  3.099702814E+02  3.099702814E+02  0.000000000E+00  0.00000E+00  9.000E+00
      21    -1     0     0   512   502  0.000000000E+00  0.000000000E+00 -3.525097786E+02  3.525097786E+02  0.000000000E+00  0.00000E+00  9.000E+00
      25     1     1     2     0     0 -1.476749262E+02  1.121681791E+02 -5.103072042E+00  2.236976208E+02  1.250000000E+02  0.00000E+00  9.000E+00
      25     1     1     2     0     0  1.408360652E+02 -5.828734905E+01  1.473956981E+02  2.461355402E+02  1.250000000E+02  0.00000E+00  9.000E+00
      21     1     1     2   512   501  6.838860937E+00 -5.388083009E+01 -1.848321232E+02  1.926468989E+02  2.697398305E-06  0.00000E+00  9.000E+00
#rwgt            1           1   3.6202544458434481E-002           8      484532           0
</event>
<event>
      5   9999  3.79277E-02  1.09380E+02 -1.00000E+00  1.22102E-01
       2    -1     0     0   502     0  0.000000000E+00  0.000000000E+00  2.906790029E+03  2.906790029E+03  0.000000000E+00  0.00000E+00  9.000E+00
      21    -1     0     0   501   502  0.000000000E+00  0.000000000E+00 -2.407176672E+02  2.407176672E+02  0.000000000E+00  0.00000E+00  9.000E+00
      25     1     1     2     0     0  3.379506743E+01 -6.215221750E+01 -1.472203126E+02  2.056789371E+02  1.250000000E+02  0.00000E+00  9.000E+00
      25     1     1     2     0     0 -1.382563321E+02  2.971949317E+01  7.779453587E+01  2.041446826E+02  1.250000000E+02  0.00000E+00  9.000E+00
       2     1     1     2   501     0  1.044612646E+02  3.243272434E+01  2.735498138E+03  2.737684076E+03  3.051757812E-05  0.00000E+00  9.000E+00
#rwgt            1           1   2.8454018514787408E-002           8      484733           0
</event>
<event>
      5   9999  3.79277E-02  9.63807E+01 -1.00000E+00  1.24552E-01
      21    -1     0     0   502   501  0.000000000E+00  0.000000000E+00  1.896558219E+02  1.896558219E+02  0.000000000E+00  0.00000E+00  9.000E+00
      21    -1     0     0   511   502  0.000000000E+00  0.000000000E+00 -8.085837670E+02  8.085837670E+02  0.000000000E+00  0.00000E+00  9.000E+00
      25     1     1     2     0     0 -3.784767914E+01 -1.899485812E+02 -3.222710861E+01  2.327584517E+02  1.250000000E+02  0.00000E+00  9.000E+00
      25     1     1     2     0     0 -3.129723108E+01  1.228052385E+02 -7.337543439E+00  1.781557824E+02  1.250000000E+02  0.00000E+00  9.000E+00
      21     1     1     2   511   501  6.914491022E+01  6.714334266E+01 -5.793632930E+02  5.873253548E+02  7.629394531E-06  0.00000E+00  9.000E+00
#rwgt            1           1   4.1479512403654481E-002           8      484850           0
</event>
<event>
      5   9999 -3.79277E-02  3.24521E+02 -1.00000E+00  1.04495E-01
      21    -1     0     0   512   501  0.000000000E+00  0.000000000E+00  3.515958187E+02  3.515958187E+02  0.000000000E+00  0.00000E+00  9.000E+00
      21    -1     0     0   501   502  0.000000000E+00  0.000000000E+00 -1.187891162E+03  1.187891162E+03  0.000000000E+00  0.00000E+00  9.000E+00
      25     1     1     2     0     0 -6.003647025E+01  4.377949600E+02 -5.574530065E+02  7.222517977E+02  1.250000000E+02  0.00000E+00  9.000E+00
      25     1     1     2     0     0  1.700687915E+02 -1.324966260E+02 -3.996291587E+02  4.709641326E+02  1.250000000E+02  0.00000E+00  9.000E+00
      21     1     1     2   512   502 -1.100323213E+02 -3.052983340E+02  1.207868214E+02  3.462710509E+02  8.740569487E-06  0.00000E+00  9.000E+00
#rwgt            1           1 -0.19847585908998186                8      484916           0
</event>
<event>
      5   9999  3.79277E-02  2.54828E+01 -1.00000E+00  1.58131E-01
      21    -1     0     0   502   511  0.000000000E+00  0.000000000E+00  1.537686681E+02  1.537686681E+02  0.000000000E+00  0.00000E+00  9.000E+00
      21    -1     0     0   501   502  0.000000000E+00  0.000000000E+00 -2.383494253E+02  2.383494253E+02  0.000000000E+00  0.00000E+00  9.000E+00
      25     1     1     2     0     0 -1.238706024E+02  3.953903401E+01 -3.358852225E+01  1.834678451E+02  1.250000000E+02  0.00000E+00  9.000E+00
      25     1     1     2     0     0  1.077676316E+02 -5.928916185E+01 -5.268473887E+01  1.831113018E+02  1.250000000E+02  0.00000E+00  9.000E+00
      21     1     1     2   501   511  1.610297076E+01  1.975012784E+01  1.692503890E+00  2.553894646E+01  3.168030325E-07  0.00000E+00  9.000E+00
#rwgt            1           1   4.2144883147572296E-002           8      484960           0
</event>
<event>
      5   9999  3.79277E-02  1.75385E+01 -1.00000E+00  1.71217E-01
      21    -1     0     0   502   501  0.000000000E+00  0.000000000E+00  2.998677816E+03  2.998677816E+03  0.000000000E+00  0.00000E+00  9.000E+00
       2    -1     0     0   501     0  0.000000000E+00  0.000000000E+00 -3.653257918E+02  3.653257918E+02  0.000000000E+00  0.00000E+00  9.000E+00
      25     1     1     2     0     0 -9.810974091E+00 -1.950323702E+02  1.329326671E+03  1.349395524E+03  1.250000000E+02  0.00000E+00  9.000E+00
      25     1     1     2     0     0  2.591549138E+01  2.019781835E+02  1.650492053E+03  1.667697759E+03  1.250000000E+02  0.00000E+00  9.000E+00
       2     1     1     2   502     0 -1.610451729E+01 -6.945813287E+00 -3.464666996E+02  3.469103252E+02  3.814697266E-06  0.00000E+00  9.000E+00
#rwgt            1           1   4.1591156352048013E-002           8      485116           0
</event>
<event>
      5   9999  3.79277E-02  8.16492E+01 -1.00000E+00  1.27922E-01
      21    -1     0     0   511   501  0.000000000E+00  0.000000000E+00  7.824803541E+02  7.824803541E+02  0.000000000E+00  0.00000E+00  9.000E+00
      21    -1     0     0   501   502  0.000000000E+00  0.000000000E+00 -1.297234007E+02  1.297234007E+02  0.000000000E+00  0.00000E+00  9.000E+00
      25     1     1     2     0     0 -3.419883872E+01  1.177500802E+02 -7.837580954E+00  1.752742697E+02  1.250000000E+02  0.00000E+00  9.000E+00
      25     1     1     2     0     0 -4.688504965E+01 -1.081587076E+02  1.777032558E+02  2.471840631E+02  1.250000000E+02  0.00000E+00  9.000E+00
      21     1     1     2   511   502  8.108388837E+01 -9.591372614E+00  4.828912786E+02  4.897454220E+02  0.000000000E+00  0.00000E+00  9.000E+00
#rwgt            1           1   4.3162454587549567E-002           8      485319           0
</event>
<event>
      5   9999  3.79277E-02  1.67918E+01 -1.00000E+00  1.72888E-01
      21    -1     0     0   502   501  0.000000000E+00  0.000000000E+00  1.379889415E+02  1.379889415E+02  0.000000000E+00  0.00000E+00  9.000E+00
      21    -1     0     0   512   502  0.000000000E+00  0.000000000E+00 -5.535379849E+02  5.535379849E+02  0.000000000E+00  0.00000E+00  9.000E+00
      25     1     1     2     0     0 -6.687437673E+01  1.190682815E+02 -1.279881278E+02  2.250675427E+02  1.250000000E+02  0.00000E+00  9.000E+00
      25     1     1     2     0     0  8.351466425E+01 -1.168176082E+02 -1.240082359E+01  1.907874030E+02  1.250000000E+02  0.00000E+00  9.000E+00
      21     1     1     2   512   501 -1.664028752E+01 -2.250673289E+00 -2.751600920E+02  2.756719807E+02  0.000000000E+00  0.00000E+00  9.000E+00
#rwgt            1           1   4.2964625431311479E-002           8      485799           0
</event>
<event>
      5   9999  3.79277E-02  1.27865E+01 -1.00000E+00  1.84175E-01
      21    -1     0     0   502   511  0.000000000E+00  0.000000000E+00  1.023409560E+02  1.023409560E+02  0.000000000E+00  0.00000E+00  9.000E+00
      21    -1     0     0   501   502  0.000000000E+00  0.000000000E+00 -7.705016573E+02  7.705016573E+02  0.000000000E+00  0.00000E+00  9.000E+00
      25     1     1     2     0     0 -1.051546384E+02 -1.084697678E+02 -6.176254424E+02  6.480041478E+02  1.250000000E+02  0.00000E+00  9.000E+00
      25     1     1     2     0     0  1.141741241E+02  9.940646636E+01 -6.378603628E+01  2.064244041E+02  1.250000000E+02  0.00000E+00  9.000E+00
      21     1     1     2   501   511 -9.019485709E+00  9.063301423E+00  1.325077742E+01  1.841406140E+01  4.460403188E-07  0.00000E+00  9.000E+00
#rwgt            1           1   3.4697223292069597E-002           8      485939           0
</event>
<event>
      5   9999  3.79277E-02  3.95040E+01 -1.00000E+00  1.45177E-01
      21    -1     0     0   502   512  0.000000000E+00  0.000000000E+00  8.034241138E+01  8.034241138E+01  0.000000000E+00  0.00000E+00  9.000E+00
      21    -1     0     0   501   502  0.000000000E+00  0.000000000E+00 -9.258186350E+02  9.258186350E+02  0.000000000E+00  0.00000E+00  9.000E+00
      25     1     1     2     0     0 -5.299881500E+01 -8.126717463E+00 -5.803851052E+00  1.361381747E+02  1.250000000E+02  0.00000E+00  9.000E+00
      25     1     1     2     0     0  1.822408328E+01  2.686936069E+01 -8.109789480E+02  8.211978652E+02  1.250000000E+02  0.00000E+00  9.000E+00
      21     1     1     2   501   512  3.477473172E+01 -1.874264323E+01 -2.869342458E+01  4.882500646E+01  3.371747881E-07  0.00000E+00  9.000E+00
#rwgt            1           1   4.3234576610548942E-002           8      486152           0
</event>
<event>
      5   9999  3.79277E-02  7.89227E+01 -1.00000E+00  1.28635E-01
      21    -1     0     0   502   511  0.000000000E+00  0.000000000E+00  6.535566938E+02  6.535566938E+02  0.000000000E+00  0.00000E+00  9.000E+00
      21    -1     0     0   501   502  0.000000000E+00  0.000000000E+00 -8.211628016E+01  8.211628016E+01  0.000000000E+00  0.00000E+00  9.000E+00
      25     1     1     2     0     0  1.015105466E+01  1.709126553E+02  1.823712108E+02  2.796398365E+02  1.250000000E+02  0.00000E+00  9.000E+00
      25     1     1     2     0     0 -2.673098708E+01 -9.375110010E+01  2.726550362E+02  3.153879883E+02  1.250000000E+02  0.00000E+00  9.000E+00
      21     1     1     2   501   511  1.657993242E+01 -7.716155519E+01  1.164141667E+02  1.406451491E+02  0.000000000E+00  0.00000E+00  9.000E+00
#rwgt            1           1   2.6421770698139301E-002           8      486337           0
</event>
<event>
      5   9999  3.79277E-02  6.01975E+01 -1.00000E+00  1.34627E-01
      21    -1     0     0   502   501  0.000000000E+00  0.000000000E+00  9.981664017E+02  9.981664017E+02  0.000000000E+00  0.00000E+00  9.000E+00
      21    -1     0     0   512   502  0.000000000E+00  0.000000000E+00 -1.637156198E+02  1.637156198E+02  0.000000000E+00  0.00000E+00  9.000E+00
      25     1     1     2     0     0 -1.272563128E+02  1.949575864E+01  8.711148490E+02  8.894044827E+02  1.250000000E+02  0.00000E+00  9.000E+00
      25     1     1     2     0     0  1.412914252E+02 -7.803429263E+01 -4.443404822E+00  2.041993181E+02  1.250000000E+02  0.00000E+00  9.000E+00
      21     1     1     2   512   501 -1.403511242E+01  5.853853399E+01 -3.222066225E+01  6.827822067E+01  1.168007728E-06  0.00000E+00  9.000E+00
#rwgt            1           1   3.6856618482654778E-002           8      486438           0
</event>
<event>
      5   9999  3.79277E-02  3.68493E+01 -1.00000E+00  1.47085E-01
      21    -1     0     0   502   501  0.000000000E+00  0.000000000E+00  1.110814061E+03  1.110814061E+03  0.000000000E+00  0.00000E+00  9.000E+00
      21    -1     0     0   511   502  0.000000000E+00  0.000000000E+00 -6.852874000E+01  6.852874000E+01  0.000000000E+00  0.00000E+00  9.000E+00
      25     1     1     2     0     0 -4.542020818E+01  1.622953731E+02  6.943241988E+02  7.253370778E+02  1.250000000E+02  0.00000E+00  9.000E+00
      25     1     1     2     0     0  7.587758478E+01 -1.830370359E+02  3.450167751E+02  4.170390143E+02  1.250000000E+02  0.00000E+00  9.000E+00
      21     1     1     2   511   501 -3.045737660E+01  2.074166278E+01  2.944346845E+00  3.696670857E+01  4.172325134E-07  0.00000E+00  9.000E+00
#rwgt            1           1   3.9954203355884940E-002           8      486801           0
</event>
<event>
      5   9999  3.79277E-02  4.90043E+01 -1.00000E+00  1.39576E-01
       1    -1     0     0   502     0  0.000000000E+00  0.000000000E+00  7.921865609E+02  7.921865609E+02  0.000000000E+00  0.00000E+00  9.000E+00
      21    -1     0     0   501   502  0.000000000E+00  0.000000000E+00 -5.478506281E+01  5.478506281E+01  0.000000000E+00  0.00000E+00  9.000E+00
      25     1     1     2     0     0  7.038652450E+00  7.673079474E+01  3.324385524E+02  3.634247496E+02  1.250000000E+02  0.00000E+00  9.000E+00
      25     1     1     2     0     0  3.067087227E+01 -1.080264463E+02  1.542758748E+02  2.281150172E+02  1.250000000E+02  0.00000E+00  9.000E+00
       1     1     1     2   501     0 -3.770952472E+01  3.129565153E+01  2.506870709E+02  2.554318570E+02  2.697398305E-06  0.00000E+00  9.000E+00
#rwgt            1           1   5.1912749364486657E-002           8      487023           0
</event>
<event>
      5   9999  3.79277E-02  3.81114E+01 -1.00000E+00  1.46155E-01
      21    -1     0     0   502   501  0.000000000E+00  0.000000000E+00  1.266571245E+02  1.266571245E+02  0.000000000E+00  0.00000E+00  9.000E+00
      21    -1     0     0   511   502  0.000000000E+00  0.000000000E+00 -5.464599441E+02  5.464599441E+02  0.000000000E+00  0.00000E+00  9.000E+00
      25     1     1     2     0     0  3.760239959E+01  8.027549413E+00 -2.284582723E+02  2.632424058E+02  1.250000000E+02  0.00000E+00  9.000E+00
      25     1     1     2     0     0 -7.536936454E+01 -2.915508195E+00  5.839878073E+01  1.572401313E+02  1.250000000E+02  0.00000E+00  9.000E+00
      21     1     1     2   511   501  3.776696495E+01 -5.112041217E+00 -2.497433281E+02  2.526345315E+02  2.697398305E-06  0.00000E+00  9.000E+00
#rwgt            1           1   3.9292293476784361E-002           8      487232           0
</event>
<event>
      5   9999  3.79277E-02  4.35897E+01 -1.00000E+00  1.42563E-01
      21    -1     0     0   512   501  0.000000000E+00  0.000000000E+00  1.495694847E+03  1.495694847E+03  0.000000000E+00  0.00000E+00  9.000E+00
      21    -1     0     0   501   502  0.000000000E+00  0.000000000E+00 -4.409166745E+01  4.409166745E+01  0.000000000E+00  0.00000E+00  9.000E+00
      25     1     1     2     0     0 -5.186769187E+00 -8.162157095E+00  6.463734368E+02  6.584201874E+02  1.250000000E+02  0.00000E+00  9.000E+00
      25     1     1     2     0     0 -3.878311189E+00  5.079883016E+01  8.435284960E+01  1.591727542E+02  1.250000000E+02  0.00000E+00  9.000E+00
      21     1     1     2   512   502  9.065080376E+00 -4.263667306E+01  7.208768933E+02  7.221935729E+02  0.000000000E+00  0.00000E+00  9.000E+00
#rwgt            1           1   3.1024904856953594E-002           8      487353           0
</event>
<event>
      5   9999  3.79277E-02  5.39927E+01 -1.00000E+00  1.37198E-01
      21    -1     0     0   511   501  0.000000000E+00  0.000000000E+00  1.676299692E+02  1.676299692E+02  0.000000000E+00  0.00000E+00  9.000E+00
      21    -1     0     0   501   502  0.000000000E+00  0.000000000E+00 -2.956882134E+02  2.956882134E+02  0.000000000E+00  0.00000E+00  9.000E+00
      25     1     1     2     0     0 -9.871359806E+01 -5.126762588E+01 -1.496208506E+01  1.679928805E+02  1.250000000E+02  0.00000E+00  9.000E+00
      25     1     1     2     0     0  1.308544209E+02  9.465172192E+01 -1.257985788E+02  2.398585216E+02  1.250000000E+02  0.00000E+00  9.000E+00
      21     1     1     2   511   502 -3.214082284E+01 -4.338409604E+01  1.270241972E+01  5.546678059E+01  8.259061849E-07  0.00000E+00  9.000E+00
#rwgt            1           1   3.9867383346525419E-002           8      487496           0
</event>
<event>
      5   9999  3.79277E-02  1.59115E+01 -1.00000E+00  1.75003E-01
      21    -1     0     0   502   501  0.000000000E+00  0.000000000E+00  3.394448665E+02  3.394448665E+02  0.000000000E+00  0.00000E+00  9.000E+00
      21    -1     0     0   501   512  0.000000000E+00  0.000000000E+00 -9.341862312E+02  9.341862312E+02  0.000000000E+00  0.00000E+00  9.000E+00
      25     1     1     2     0     0  1.733025803E+02 -5.408715118E+01  1.570331469E+02  2.706355732E+02  1.250000000E+02  0.00000E+00  9.000E+00
      25     1     1     2     0     0 -1.591675223E+02  6.139307478E+01  3.645124377E+01  2.146091866E+02  1.250000000E+02  0.00000E+00  9.000E+00
      21     1     1     2   502   512 -1.413505797E+01 -7.305923598E+00 -7.882257553E+02  7.883863379E+02  1.078959322E-05  0.00000E+00  9.000E+00
#rwgt            1           1   8.8724556434951168E-002           8      487658           0
</event>
<event>
      5   9999  3.79277E-02  4.66929E+01 -1.00000E+00  1.40793E-01
      21    -1     0     0   502   501  0.000000000E+00  0.000000000E+00  2.751464494E+02  2.751464494E+02  0.000000000E+00  0.00000E+00  9.000E+00
      21    -1     0     0   501   511  0.000000000E+00  0.000000000E+00 -3.822189767E+02  3.822189767E+02  0.000000000E+00  0.00000E+00  9.000E+00
      25     1     1     2     0     0  9.558753770E+01  6.824647081E+01  1.706828489E+02  2.419756043E+02  1.250000000E+02  0.00000E+00  9.000E+00
      25     1     1     2     0     0 -1.058786529E+02 -1.137911458E+02 -8.457861339E+01  2.166500769E+02  1.250000000E+02  0.00000E+00  9.000E+00
      21     1     1     2   502   511  1.029111519E+01  4.554467495E+01 -1.931767629E+02  1.987397449E+02  3.814697266E-06  0.00000E+00  9.000E+00
#rwgt            1           1   2.4948992751685183E-002           8      487788           0
</event>
<event>
      5   9999  3.79277E-02  1.21475E+02 -1.00000E+00  1.20143E-01
      21    -1     0     0   502   501  0.000000000E+00  0.000000000E+00  9.872241091E+01  9.872241091E+01  0.000000000E+00  0.00000E+00  9.000E+00
      21    -1     0     0   501   512  0.000000000E+00  0.000000000E+00 -5.333841314E+02  5.333841314E+02  0.000000000E+00  0.00000E+00  9.000E+00
      25     1     1     2     0     0  2.820467530E+01 -4.079396450E+01 -6.176412992E+01  1.479846580E+02  1.250000000E+02  0.00000E+00  9.000E+00
      25     1     1     2     0     0 -1.385903347E+02 -9.914006964E+00 -2.143484647E+02  2.843867661E+02  1.250000000E+02  0.00000E+00  9.000E+00
      21     1     1     2   502   512  1.103856594E+02  5.070797146E+01 -1.585491258E+02  1.997351182E+02  0.000000000E+00  0.00000E+00  9.000E+00
#rwgt            2          11   1.7151821324338267E-003           8      487990           0
</event>
<event>
      5   9999  3.79277E-02  3.22781E+01 -1.00000E+00  1.50864E-01
      21    -1     0     0   502   511  0.000000000E+00  0.000000000E+00  3.889161104E+02  3.889161104E+02  0.000000000E+00  0.00000E+00  9.000E+00
      21    -1     0     0   501   502  0.000000000E+00  0.000000000E+00 -1.765215007E+02  1.765215007E+02  0.000000000E+00  0.00000E+00  9.000E+00
      25     1     1     2     0     0 -4.200829473E+01 -1.634669609E+02 -2.132464069E+01  2.111063344E+02  1.250000000E+02  0.00000E+00  9.000E+00
      25     1     1     2     0     0  2.513664707E+01  1.359492973E+02  8.989662150E+01  2.069310635E+02  1.250000000E+02  0.00000E+00  9.000E+00
      21     1     1     2   501   511  1.687164766E+01  2.751766355E+01  1.438226288E+02  1.474002132E+02  0.000000000E+00  0.00000E+00  9.000E+00
#rwgt            1           1   3.6645725823974400E-002           8      488115           0
</event>
<event>
      5   9999  3.79277E-02  4.64125E+02 -1.00000E+00  9.97794E-02
       2    -1     0     0   502     0  0.000000000E+00  0.000000000E+00  2.393005481E+03  2.393005481E+03  0.000000000E+00  0.00000E+00  9.000E+00
      21    -1     0     0   501   502  0.000000000E+00  0.000000000E+00 -1.630135354E+02  1.630135354E+02  0.000000000E+00  0.00000E+00  9.000E+00
      25     1     1     2     0     0 -1.738788009E+02  4.622041587E+02  6.322864564E+02  8.119591644E+02  1.250000000E+02  0.00000E+00  9.000E+00
      25     1     1     2     0     0  1.962851677E+02  1.379287053E+00  6.050834826E+02  6.482906682E+02  1.250000000E+02  0.00000E+00  9.000E+00
       2     1     1     2   501     0 -2.240636681E+01 -4.635834458E+02  9.926220068E+02  1.095769184E+03  1.868812365E-05  0.00000E+00  9.000E+00
#rwgt            2          18   1.6723492194906510E-004           8      488237           0
</event>
<event>
      5   9999  3.79277E-02  1.83559E+01 -1.00000E+00  1.69503E-01
      21    -1     0     0   502   501  0.000000000E+00  0.000000000E+00  2.845786022E+02  2.845786022E+02  0.000000000E+00  0.00000E+00  9.000E+00
      21    -1     0     0   501   511  0.000000000E+00  0.000000000E+00 -1.205585510E+02  1.205585510E+02  0.000000000E+00  0.00000E+00  9.000E+00
      25     1     1     2     0     0 -3.078845421E+01 -6.522900177E+01  1.236632937E+02  1.900535761E+02  1.250000000E+02  0.00000E+00  9.000E+00
      25     1     1     2     0     0  3.627264933E+01  4.771153411E+01  8.788305152E+01  1.641356948E+02  1.250000000E+02  0.00000E+00  9.000E+00
      21     1     1     2   502   511 -5.484195117E+00  1.751746766E+01 -4.752629407E+01  5.094788217E+01  6.743495762E-07  0.00000E+00  9.000E+00
#rwgt            1           1   3.9774710380773598E-002           8      488421           0
</event>
<event>
      5   9999  3.79277E-02  4.09390E+00 -1.00000E+00  2.61118E-01
      21    -1     0     0   502   501  0.000000000E+00  0.000000000E+00  1.781258590E+02  1.781258590E+02  0.000000000E+00  0.00000E+00  9.000E+00
      21    -1     0     0   512   502  0.000000000E+00  0.000000000E+00 -2.577943521E+02  2.577943521E+02  0.000000000E+00  0.00000E+00  9.000E+00
      25     1     1     2     0     0 -1.227697238E+02 -4.462228630E+01  7.041282632E+01  1.940271106E+02  1.250000000E+02  0.00000E+00  9.000E+00
      25     1     1     2     0     0  1.260295847E+02  4.214572469E+01 -1.369060363E+02  2.280964294E+02  1.250000000E+02  0.00000E+00  9.000E+00
      21     1     1     2   512   501 -3.259860852E+00  2.476561609E+00 -1.317528305E+01  1.379667110E+01  1.685873940E-07  0.00000E+00  9.000E+00
#rwgt            1           1   3.0304832007158437E-002           8      488521           0
</event>
<event>
      5   9999  3.79277E-02  1.91843E+01 -1.00000E+00  1.67875E-01
      21    -1     0     0   511   501  0.000000000E+00  0.000000000E+00  1.015988363E+02  1.015988363E+02  0.000000000E+00  0.00000E+00  9.000E+00
      21    -1     0     0   501   502  0.000000000E+00  0.000000000E+00 -4.395250907E+02  4.395250907E+02  0.000000000E+00  0.00000E+00  9.000E+00
      25     1     1     2     0     0 -3.553051852E+01  1.271989381E+02 -2.973428528E+02  3.485394665E+02  1.250000000E+02  0.00000E+00  9.000E+00
      25     1     1     2     0     0  3.038327647E+01 -1.087180411E+02 -4.118910076E+01  1.733905937E+02  1.250000000E+02  0.00000E+00  9.000E+00
      21     1     1     2   511   502  5.147242049E+00 -1.848089696E+01  6.056991943E-01  1.919386685E+01  3.430504928E-07  0.00000E+00  9.000E+00
#rwgt            1           1   2.5484535213285531E-002           8      488972           0
</event>
<event>
      5   9999  3.79277E-02  5.45475E+01 -1.00000E+00  1.36952E-01
      21    -1     0     0   502   501  0.000000000E+00  0.000000000E+00  2.686573096E+02  2.686573096E+02  0.000000000E+00  0.00000E+00  9.000E+00
      21    -1     0     0   512   502  0.000000000E+00  0.000000000E+00 -3.498940113E+02  3.498940113E+02  0.000000000E+00  0.00000E+00  9.000E+00
      25     1     1     2     0     0  1.292594809E+02  5.699165744E+01  3.308288314E+01  1.915085888E+02  1.250000000E+02  0.00000E+00  9.000E+00
      25     1     1     2     0     0 -1.224677278E+02 -1.111146557E+02  8.227397389E+01  2.230220120E+02  1.250000000E+02  0.00000E+00  9.000E+00
      21     1     1     2   512   501 -6.791753093E+00  5.412299831E+01 -1.965935588E+02  2.040207200E+02  3.814697266E-06  0.00000E+00  9.000E+00
#rwgt            1           1   3.9665711049810710E-002           8      489139           0
</event>
<event>
      5   9999  3.79277E-02  3.22857E+01 -1.00000E+00  1.50857E-01
      -1    -1     0     0     0   501  0.000000000E+00  0.000000000E+00  2.100633203E+03  2.100633203E+03  0.000000000E+00  0.00000E+00  9.000E+00
      21    -1     0     0   501   502  0.000000000E+00  0.000000000E+00 -3.428680222E+02  3.428680222E+02  0.000000000E+00  0.00000E+00  9.000E+00
      25     1     1     2     0     0 -6.299150030E+01  2.341288507E+02  1.069824730E+02  2.930093811E+02  1.250000000E+02  0.00000E+00  9.000E+00
      25     1     1     2     0     0  9.143075739E+01 -2.188457401E+02 -1.777511440E+02  3.216729870E+02  1.250000000E+02  0.00000E+00  9.000E+00
      -1     1     1     2     0   502 -2.843925708E+01 -1.528311062E+01  1.828533851E+03  1.828818857E+03  2.157918644E-05  0.00000E+00  9.000E+00
#rwgt            1           1   3.1630172684843610E-002           8      489251           0
</event>
<event>
      5   9999  3.79277E-02  1.46545E+02 -1.00000E+00  1.16796E-01
      21    -1     0     0   502   511  0.000000000E+00  0.000000000E+00  2.250008585E+02  2.250008585E+02  0.000000000E+00  0.00000E+00  9.000E+00
      21    -1     0     0   501   502  0.000000000E+00  0.000000000E+00 -1.731895817E+03  1.731895817E+03  0.000000000E+00  0.00000E+00  9.000E+00
      25     1     1     2     0     0 -1.066278230E+02  4.991886047E+01 -1.232926009E+03  1.244826466E+03  1.250000000E+02  0.00000E+00  9.000E+00
      25     1     1     2     0     0  2.495495080E+02 -1.753137124E+01 -4.203904406E+02  5.049113075E+02  1.250000000E+02  0.00000E+00  9.000E+00
      21     1     1     2   501   511 -1.429216850E+02 -3.238748923E+01  1.464214916E+02  2.071589020E+02  4.672030912E-06  0.00000E+00  9.000E+00
#rwgt            1           1   3.5622459392172193E-002           8      489417           0
</event>
<event>
      5   9999  3.79277E-02  9.52855E+00 -1.00000E+00  1.98213E-01
      21    -1     0     0   502   512  0.000000000E+00  0.000000000E+00  3.169710650E+01  3.169710650E+01  0.000000000E+00  0.00000E+00  9.000E+00
      21    -1     0     0   501   502  0.000000000E+00  0.000000000E+00 -1.588791131E+03  1.588791131E+03  0.000000000E+00  0.00000E+00  9.000E+00
      25     1     1     2     0     0  9.893399043E+01 -3.329328749E+01 -2.403132834E+02  2.902961447E+02  1.250000000E+02  0.00000E+00  9.000E+00
      25     1     1     2     0     0 -9.545527896E+01  4.216412936E+01 -1.304622004E+03  1.314744499E+03  1.250000000E+02  0.00000E+00  9.000E+00
      21     1     1     2   501   512 -3.478711469E+00 -8.870841877E+00 -1.215873714E+01  1.544759392E+01  2.920019320E-07  0.00000E+00  9.000E+00
#rwgt            1           1   4.3176622429585601E-002           8      489523           0
</event>
<event>
      5   9999  3.79277E-02  5.03295E+01 -1.00000E+00  1.38913E-01
      21    -1     0     0   502   501  0.000000000E+00  0.000000000E+00  5.191771504E+01  5.191771504E+01  0.000000000E+00  0.00000E+00  9.000E+00
       1    -1     0     0   501     0  0.000000000E+00  0.000000000E+00 -1.181635055E+03  1.181635055E+03  0.000000000E+00  0.00000E+00  9.000E+00
      25     1     1     2     0     0  3.841922973E+01 -1.312626747E+02 -2.139211077E+02  2.830073626E+02  1.250000000E+02  0.00000E+00  9.000E+00
      25     1     1     2     0     0  2.048425546E+00  1.611864281E+02 -7.139743814E+02  7.425427112E+02  1.250000000E+02  0.00000E+00  9.000E+00
       1     1     1     2   502     0 -4.046765527E+01 -2.992375337E+01 -2.018218504E+02  2.080026957E+02  2.697398305E-06  0.00000E+00  9.000E+00
#rwgt            1           1   3.6807064046858087E-002           8      489702           0
</event>
<event>
      5   9999  3.79277E-02  3.37584E+01 -1.00000E+00  1.49563E-01
      21    -1     0     0   502   501  0.000000000E+00  0.000000000E+00  8.598399315E+01  8.598399315E+01  0.000000000E+00  0.00000E+00  9.000E+00
      21    -1     0     0   511   502  0.000000000E+00  0.000000000E+00 -9.345756918E+02  9.345756918E+02  0.000000000E+00  0.00000E+00  9.000E+00
      25     1     1     2     0     0 -1.579937508E+02 -1.493040868E+02 -3.803917222E+02  4.556057483E+02  1.250000000E+02  0.00000E+00  9.000E+00
      25     1     1     2     0     0  1.741238781E+02  1.196486050E+02 -2.741608892E+02  3.680001451E+02  1.250000000E+02  0.00000E+00  9.000E+00
      21     1     1     2   511   501 -1.613012734E+01  2.965548173E+01 -1.940390873E+02  1.969537915E+02  2.697398305E-06  0.00000E+00  9.000E+00
#rwgt            1           1   4.5087486468156211E-002           8      489834           0
</event>
<event>
      5   9999  3.79277E-02  2.60772E+01 -1.00000E+00  1.57391E-01
       2    -1     0     0   502     0  0.000000000E+00  0.000000000E+00  9.505829847E+02  9.505829847E+02  0.000000000E+00  0.00000E+00  9.000E+00
      21    -1     0     0   501   502  0.000000000E+00  0.000000000E+00 -3.327927390E+02  3.327927390E+02  0.000000000E+00  0.00000E+00  9.000E+00
      25     1     1     2     0     0 -2.244539284E+02 -6.607977873E+01 -4.226786992E+01  2.686218084E+02  1.250000000E+02  0.00000E+00  9.000E+00
      25     1     1     2     0     0  2.262286153E+02  4.006302291E+01 -8.055953877E+01  2.736773126E+02  1.250000000E+02  0.00000E+00  9.000E+00
       2     1     1     2   501     0 -1.774686878E+00  2.601675582E+01  7.406176543E+02  7.410766026E+02  0.000000000E+00  0.00000E+00  9.000E+00
#rwgt            1           1   2.1404810601726099E-002           8      489961           0
</event>
<event>
      5   9999  3.79277E-02  4.33824E+01 -1.00000E+00  1.42687E-01
      21    -1     0     0   502   501  0.000000000E+00  0.000000000E+00  4.357941658E+01  4.357941658E+01  0.000000000E+00  0.00000E+00  9.000E+00
      21    -1     0     0   511   502  0.000000000E+00  0.000000000E+00 -1.250708115E+03  1.250708115E+03  0.000000000E+00  0.00000E+00  9.000E+00
      25     1     1     2     0     0  8.788077336E+01  1.166395705E+02 -4.478252694E+02  4.873400165E+02  1.250000000E+02  0.00000E+00  9.000E+00
      25     1     1     2     0     0 -8.841828099E+01 -1.600185984E+02 -5.446873420E+02  5.879906843E+02  1.250000000E+02  0.00000E+00  9.000E+00
      21     1     1     2   511   501  5.375076245E-01  4.337902788E+01 -2.146160872E+02  2.189568311E+02  4.672030912E-06  0.00000E+00  9.000E+00
#rwgt            1           1   4.2444748166525582E-002           8      490237           0
</event>
<event>
      5   9999  3.79277E-02  8.45474E+00 -1.00000E+00  2.04580E-01
      21    -1     0     0   502   512  0.000000000E+00  0.000000000E+00  5.017835390E+01  5.017835390E+01  0.000000000E+00  0.00000E+00  9.000E+00
      21    -1     0     0   501   502  0.000000000E+00  0.000000000E+00 -8.891451556E+02  8.891451556E+02  0.000000000E+00  0.00000E+00  9.000E+00
      25     1     1     2     0     0 -1.070817075E+02  9.947230575E+01 -2.704800433E+02  3.318820355E+02  1.250000000E+02  0.00000E+00  9.000E+00
      25     1     1     2     0     0  1.130783838E+02 -1.054323854E+02 -5.636826012E+02  5.977171435E+02  1.250000000E+02  0.00000E+00  9.000E+00
      21     1     1     2   501   512 -5.996676261E+00  5.960079670E+00 -4.804157233E+00  9.724330443E+00  1.576990671E-07  0.00000E+00  9.000E+00
#rwgt            1           1   4.2645586795526692E-002           8      490351           0
</event>
<event>
      5   9999  3.79277E-02  6.21483E+01 -1.00000E+00  1.33892E-01
      21    -1     0     0   511   501  0.000000000E+00  0.000000000E+00  4.597865302E+02  4.597865302E+02  0.000000000E+00  0.00000E+00  9.000E+00
      21    -1     0     0   501   502  0.000000000E+00  0.000000000E+00 -3.156659845E+02  3.156659845E+02  0.000000000E+00  0.00000E+00  9.000E+00
      25     1     1     2     0     0 -5.634474697E+01  3.068181573E+02 -9.971974294E+01  3.505440618E+02  1.250000000E+02  0.00000E+00  9.000E+00
      25     1     1     2     0     0  3.727008886E+01 -2.476695023E+02  2.273390900E+02  3.606068548E+02  1.250000000E+02  0.00000E+00  9.000E+00
      21     1     1     2   511   502  1.907465811E+01 -5.914865498E+01  1.650119867E+01  6.430159815E+01  1.305872339E-06  0.00000E+00  9.000E+00
#rwgt            1           1  0.18033989586478300                8      490651           0
</event>
<event>
      5   9999  3.79277E-02  1.08522E+01 -1.00000E+00  1.91739E-01
      21    -1     0     0   512   501  0.000000000E+00  0.000000000E+00  4.727713262E+02  4.727713262E+02  0.000000000E+00  0.00000E+00  9.000E+00
      21    -1     0     0   501   502  0.000000000E+00  0.000000000E+00 -7.503167372E+01  7.503167372E+01  0.000000000E+00  0.00000E+00  9.000E+00
      25     1     1     2     0     0  5.608192553E+01 -1.052255533E+02  1.876606295E+02  2.550668762E+02  1.250000000E+02  0.00000E+00  9.000E+00
      25     1     1     2     0     0 -5.516113158E+01  9.441250914E+01  1.273106646E+02  2.092593550E+02  1.250000000E+02  0.00000E+00  9.000E+00
      21     1     1     2   512   502 -9.207939512E-01  1.081304416E+01  8.276835828E+01  8.347676873E+01  9.536743164E-07  0.00000E+00  9.000E+00
#rwgt            1           1   5.0810727689434836E-002           8      490765           0
</event>
<event>
      5   9999  3.79277E-02  1.90748E+01 -1.00000E+00  1.68084E-01
      21    -1     0     0   502   511  0.000000000E+00  0.000000000E+00  6.016318558E+01  6.016318558E+01  0.000000000E+00  0.00000E+00  9.000E+00
      21    -1     0     0   501   502  0.000000000E+00  0.000000000E+00 -2.783424277E+03  2.783424277E+03  0.000000000E+00  0.00000E+00  9.000E+00
      25     1     1     2     0     0  3.983535278E+00 -1.242717230E+02 -2.231670474E+03  2.238624005E+03  1.250000000E+02  0.00000E+00  9.000E+00
      25     1     1     2     0     0  1.093141112E+00  1.426585433E+02 -5.295422368E+02  5.624878981E+02  1.250000000E+02  0.00000E+00  9.000E+00
      21     1     1     2   501   511 -5.076676390E+00 -1.838682026E+01  3.795161919E+01  4.247556005E+01  2.078484985E-06  0.00000E+00  9.000E+00
#rwgt            1           1   3.0885442900479041E-002           8      491024           0
</event>
<event>
      5   9999  3.79277E-02  1.96835E+02 -1.00000E+00  1.11901E-01
      -1    -1     0     0     0   501  0.000000000E+00  0.000000000E+00  1.594109832E+03  1.594109832E+03  0.000000000E+00  0.00000E+00  9.000E+00
      21    -1     0     0   501   502  0.000000000E+00  0.000000000E+00 -1.876731584E+02  1.876731584E+02  0.000000000E+00  0.00000E+00  9.000E+00
      25     1     1     2     0     0  6.970326044E+01  2.531979264E+02  1.220502778E+02  3.154187768E+02  1.250000000E+02  0.00000E+00  9.000E+00
      25     1     1     2     0     0  1.124870378E+02 -3.277010171E+02  3.386120921E+02  5.003243340E+02  1.250000000E+02  0.00000E+00  9.000E+00
      -1     1     1     2     0   502 -1.821902983E+02  7.450309068E+01  9.457743033E+02  9.660398791E+02  0.000000000E+00  0.00000E+00  9.000E+00
#rwgt            1           1   3.7313709127452473E-002           8      491134           0
</event>
<event>
      5   9999  3.79277E-02  3.50497E+01 -1.00000E+00  1.48491E-01
      21    -1     0     0   502   511  0.000000000E+00  0.000000000E+00  8.394593356E+02  8.394593356E+02  0.000000000E+00  0.00000E+00  9.000E+00
      21    -1     0     0   501   502  0.000000000E+00  0.000000000E+00 -1.300227046E+02  1.300227046E+02  0.000000000E+00  0.00000E+00  9.000E+00
      25     1     1     2     0     0 -6.113165824E+01  1.553092110E+02  4.753545353E+02  5.190808847E+02  1.250000000E+02  0.00000E+00  9.000E+00
      25     1     1     2     0     0  2.659760834E+01 -1.493190514E+02 -1.663650976E+01  1.972444811E+02  1.250000000E+02  0.00000E+00  9.000E+00
      21     1     1     2   501   511  3.453404990E+01 -5.990159648E+00  2.507186055E+02  2.531566743E+02  2.697398305E-06  0.00000E+00  9.000E+00
#rwgt            1           1   4.2621345009289748E-002           8      491170           0
</event>
<event>
      5   9999  3.79277E-02  3.01645E+01 -1.00000E+00  1.52875E-01
      21    -1     0     0   502   512  0.000000000E+00  0.000000000E+00  2.714464407E+02  2.714464407E+02  0.000000000E+00  0.00000E+00  9.000E+00
      21    -1     0     0   501   502  0.000000000E+00  0.000000000E+00 -3.498116952E+02  3.498116952E+02  0.000000000E+00  0.00000E+00  9.000E+00
      25     1     1     2     0     0  3.720996364E+01 -1.110805135E+02 -1.207463350E+02  2.095904084E+02  1.250000000E+02  0.00000E+00  9.000E+00
      25     1     1     2     0     0 -4.925020004E+01  8.342313940E+01 -1.493841667E+02  2.175445509E+02  1.250000000E+02  0.00000E+00  9.000E+00
      21     1     1     2   501   512  1.204023640E+01  2.765737405E+01  1.917652473E+02  1.941231766E+02  3.814697266E-06  0.00000E+00  9.000E+00
#rwgt            1           1   3.7328867060152301E-002           8      491284           0
</event>
<event>
      5   9999  3.79277E-02  1.41838E+01 -1.00000E+00  1.79704E-01
      21    -1     0     0   502   511  0.000000000E+00  0.000000000E+00  4.834269469E+02  4.834269469E+02  0.000000000E+00  0.00000E+00  9.000E+00
      21    -1     0     0   501   502  0.000000000E+00  0.000000000E+00 -3.386336850E+02  3.386336850E+02  0.000000000E+00  0.00000E+00  9.000E+00
      25     1     1     2     0     0 -1.879712663E+02 -2.866755859E+02 -5.513414803E+01  3.690269134E+02  1.250000000E+02  0.00000E+00  9.000E+00
      25     1     1     2     0     0  1.923170573E+02  3.001771973E+02  1.592833259E+02  4.099858268E+02  1.250000000E+02  0.00000E+00  9.000E+00
      21     1     1     2   501   511 -4.345790997E+00 -1.350161141E+01  4.064408403E+01  4.304789166E+01  6.743495762E-07  0.00000E+00  9.000E+00
#rwgt            1           1   5.9654682415011873E-002           8      491403           0
</event>
<event>
      5   9999  3.79277E-02  7.51986E+01 -1.00000E+00  1.29664E-01
      21    -1     0     0   502   501  0.000000000E+00  0.000000000E+00  1.671271981E+03  1.671271981E+03  0.000000000E+00  0.00000E+00  9.000E+00
      21    -1     0     0   512   502  0.000000000E+00  0.000000000E+00 -8.333322952E+01  8.333322952E+01  0.000000000E+00  0.00000E+00  9.000E+00
      25     1     1     2     0     0 -1.298760565E+02 -4.798183572E+00  9.345525469E+02  9.517900376E+02  1.250000000E+02  0.00000E+00  9.000E+00
      25     1     1     2     0     0  1.265792417E+02 -7.032809047E+01  6.922310244E+02  7.181762568E+02  1.250000000E+02  0.00000E+00  9.000E+00
      21     1     1     2   512   501  3.296814801E+00  7.512627404E+01 -3.884482007E+01  8.463891591E+01  4.370284743E-06  0.00000E+00  9.000E+00
#rwgt            1           1   6.0258088456208621E-002           8      491670           0
</event>
<event>
      5   9999  3.79277E-02  5.31579E+01 -1.00000E+00  1.37575E-01
      21    -1     0     0   511   501  0.000000000E+00  0.000000000E+00  1.070490685E+02  1.070490685E+02  0.000000000E+00  0.00000E+00  9.000E+00
      21    -1     0     0   501   502  0.000000000E+00  0.000000000E+00 -1.616127465E+03  1.616127465E+03  0.000000000E+00  0.00000E+00  9.000E+00
      25     1     1     2     0     0  1.062939131E+02 -1.416710366E+02 -7.053542791E+02  7.379151290E+02  1.250000000E+02  0.00000E+00  9.000E+00
      25     1     1     2     0     0 -6.202200761E+01  1.710947593E+02 -8.715538169E+02  8.990835344E+02  1.250000000E+02  0.00000E+00  9.000E+00
      21     1     1     2   511   502 -4.427190553E+01 -2.942372269E+01  6.782969973E+01  8.617786979E+01  2.336015456E-06  0.00000E+00  9.000E+00
#rwgt            1           1  0.35813525654408190                8      491741           0
</event>
<event>
      5   9999  3.79277E-02  1.46060E+02 -1.00000E+00  1.16854E-01
      21    -1     0     0   502   501  0.000000000E+00  0.000000000E+00  3.863498975E+02  3.863498975E+02  0.000000000E+00  0.00000E+00  9.000E+00
      -1    -1     0     0     0   502  0.000000000E+00  0.000000000E+00 -4.260292621E+02  4.260292621E+02  0.000000000E+00  0.00000E+00  9.000E+00
      25     1     1     2     0     0  7.614643022E+01 -5.546054825E+01 -1.985119660E+01  1.577758576E+02  1.250000000E+02  0.00000E+00  9.000E+00
      25     1     1     2     0     0 -1.566771357E+02 -6.639321991E+01  2.624116803E+02  3.368095522E+02  1.250000000E+02  0.00000E+00  9.000E+00
      -1     1     1     2     0   501  8.053070550E+01  1.218537682E+02 -2.822398483E+02  3.177937497E+02  5.394796609E-06  0.00000E+00  9.000E+00
#rwgt            1           1   3.4606454388298097E-002           8      491793           0
</event>
<event>
      5   9999  3.79277E-02  2.01456E+01 -1.00000E+00  1.66110E-01
      21    -1     0     0   502   501  0.000000000E+00  0.000000000E+00  8.977120935E+02  8.977120935E+02  0.000000000E+00  0.00000E+00  9.000E+00
      21    -1     0     0   511   502  0.000000000E+00  0.000000000E+00 -3.494250870E+02  3.494250870E+02  0.000000000E+00  0.00000E+00  9.000E+00
      25     1     1     2     0     0 -4.369466074E+02  7.035002068E+01  5.979557384E+02  7.543523899E+02  1.250000000E+02  0.00000E+00  9.000E+00
      25     1     1     2     0     0  4.401671438E+02 -9.023650759E+01 -3.467514631E+01  4.676720085E+02  1.250000000E+02  0.00000E+00  9.000E+00
      21     1     1     2   511   501 -3.220536355E+00  1.988648690E+01 -1.499358553E+01  2.511278206E+01  3.371747881E-07  0.00000E+00  9.000E+00
#rwgt            1           1   6.7447396307206614E-002           8      491870           0
</event>
<event>
      5   9999 -3.79277E-02  1.15901E+02 -1.00000E+00  1.21013E-01
      21    -1     0     0   502   501  0.000000000E+00  0.000000000E+00  2.828309445E+02  2.828309445E+02  0.000000000E+00  0.00000E+00  9.000E+00
      21    -1     0     0   512   502  0.000000000E+00  0.000000000E+00 -6.800114523E+02  6.800114523E+02  0.000000000E+00  0.00000E+00  9.000E+00
      25     1     1     2     0     0  1.105240916E+02 -2.471433040E+02  1.360426107E+02  3.277620775E+02  1.250000000E+02  0.00000E+00  9.000E+00
      25     1     1     2     0     0 -1.248953741E+02  1.321370113E+02 -4.120210312E+02  4.673814014E+02  1.250000000E+02  0.00000E+00  9.000E+00
      21     1     1     2   512   501  1.437128252E+01  1.150062926E+02 -1.212020873E+02  1.676989179E+02  2.336015456E-06  0.00000E+00  9.000E+00
#rwgt            1           1  -8.6048441623522473E-002           8      492064           0
</event>
<event>
      5   9999  3.79277E-02  1.02857E+02 -1.00000E+00  1.23280E-01
      21    -1     0     0   502   501  0.000000000E+00  0.000000000E+00  6.723933375E+02  6.723933375E+02  0.000000000E+00  0.00000E+00  9.000E+00
      21    -1     0     0   501   511  0.000000000E+00  0.000000000E+00 -7.449219110E+02  7.449219110E+02  0.000000000E+00  0.00000E+00  9.000E+00
      25     1     1     2     0     0 -1.166540267E+02  7.998053967E+01  5.427892220E+02  5.746739843E+02  1.250000000E+02  0.00000E+00  9.000E+00
      25     1     1     2     0     0  1.040049440E+02  2.209552784E+01  4.832753057E+01  1.710724728E+02  1.250000000E+02  0.00000E+00  9.000E+00
      21     1     1     2   502   511  1.264908269E+01 -1.020760675E+02 -6.636453261E+02  6.715687915E+02  1.078959322E-05  0.00000E+00  9.000E+00
#rwgt            1           1   5.5485871539374135E-002           8      492177           0
</event>
<event>
      5   9999  3.79277E-02  1.07995E+02 -1.00000E+00  1.22344E-01
       2    -1     0     0   502     0  0.000000000E+00  0.000000000E+00  9.569219824E+02  9.569219824E+02  0.000000000E+00  0.00000E+00  9.000E+00
      21    -1     0     0   501   502  0.000000000E+00  0.000000000E+00 -1.363979579E+02  1.363979579E+02  0.000000000E+00  0.00000E+00  9.000E+00
      25     1     1     2     0     0  2.852295190E+01  4.610733710E+01 -7.962751722E+01  1.578131389E+02  1.250000000E+02  0.00000E+00  9.000E+00
      25     1     1     2     0     0  6.503885238E+01  7.827843786E+00  6.043223758E+02  6.205818732E+02  1.250000000E+02  0.00000E+00  9.000E+00
       2     1     1     2   501     0 -9.356180428E+01 -5.393518088E+01  2.958291659E+02  3.149249282E+02  3.814697266E-06  0.00000E+00  9.000E+00
#rwgt            1           1   4.7984589286460044E-002           8      492382           0
</event>
<event>
      5   9999  3.79277E-02  4.22381E+01 -1.00000E+00  1.43389E-01
      21    -1     0     0   502   501  0.000000000E+00  0.000000000E+00  1.796277285E+02  1.796277285E+02  0.000000000E+00  0.00000E+00  9.000E+00
      21    -1     0     0   501   511  0.000000000E+00  0.000000000E+00 -3.396156513E+02  3.396156513E+02  0.000000000E+00  0.00000E+00  9.000E+00
      25     1     1     2     0     0  9.622503758E+00 -4.941963546E+00 -2.636636110E+02  2.919940330E+02  1.250000000E+02  0.00000E+00  9.000E+00
      25     1     1     2     0     0  2.292342026E+01 -2.198045598E+01  1.252842592E+02  1.798048088E+02  1.250000000E+02  0.00000E+00  9.000E+00
      21     1     1     2   502   511 -3.254592401E+01  2.692241953E+01 -2.160857109E+01  4.744453802E+01  7.152557373E-07  0.00000E+00  9.000E+00
#rwgt            1           1   3.9165774370355670E-002           8      492474           0
</event>
<event>
      5   9999  3.79277E-02  1.48696E+02 -1.00000E+00  1.16544E-01
      21    -1     0     0   502   512  0.000000000E+00  0.000000000E+00  3.588279678E+02  3.588279678E+02  0.000000000E+00  0.00000E+00  9.000E+00
      21    -1     0     0   501   502  0.000000000E+00  0.000000000E+00 -1.349457543E+03  1.349457543E+03  0.000000000E+00  0.00000E+00  9.000E+00
      25     1     1     2     0     0 -4.431240290E+02  2.585718121E+02 -3.246485454E+02  6.198709261E+02  1.250000000E+02  0.00000E+00  9.000E+00
      25     1     1     2     0     0  5.679794844E+02 -3.393286196E+02 -6.549276483E+02  9.393081662E+02  1.250000000E+02  0.00000E+00  9.000E+00
      21     1     1     2   501   512 -1.248554554E+02  8.075680749E+01 -1.105338122E+01  1.491064182E+02  2.026557922E-06  0.00000E+00  9.000E+00
#rwgt            2          11   9.7820267835219150E-003           8      492621           0
</event>
<event>
      5   9999  3.79277E-02  3.98583E+02 -1.00000E+00  1.01732E-01
      21    -1     0     0   502   511  0.000000000E+00  0.000000000E+00  2.247453077E+03  2.247453077E+03  0.000000000E+00  0.00000E+00  9.000E+00
      21    -1     0     0   501   502  0.000000000E+00  0.000000000E+00 -3.655270586E+02  3.655270586E+02  0.000000000E+00  0.00000E+00  9.000E+00
      25     1     1     2     0     0  1.092152629E+02 -4.235995390E+02  1.759749358E+02  4.878080782E+02  1.250000000E+02  0.00000E+00  9.000E+00
      25     1     1     2     0     0 -3.522148689E+02  1.076575159E+02  1.644083640E+01  3.892823598E+02  1.250000000E+02  0.00000E+00  9.000E+00
      21     1     1     2   501   511  2.429996060E+02  3.159420231E+02  1.689510246E+03  1.735889698E+03  2.157918644E-05  0.00000E+00  9.000E+00
#rwgt            1           1   3.2323268750589308E-002           8      492656           0
</event>
<event>
      5   9999  3.79277E-02  3.17317E+01 -1.00000E+00  1.51366E-01
      21    -1     0     0   502   501  0.000000000E+00  0.000000000E+00  8.054908349E+01  8.054908349E+01  0.000000000E+00  0.00000E+00  9.000E+00
      21    -1     0     0   501   512  0.000000000E+00  0.000000000E+00 -1.815743777E+03  1.815743777E+03  0.000000000E+00  0.00000E+00  9.000E+00
      25     1     1     2     0     0  1.454584456E+02  1.309637270E+01 -8.033372270E+02  8.260177811E+02  1.250000000E+02  0.00000E+00  9.000E+00
      25     1     1     2     0     0 -1.495050731E+02  1.837626972E+01 -7.007125381E+01  2.079048696E+02  1.250000000E+02  0.00000E+00  9.000E+00
      21     1     1     2   502   512  4.046627503E+00 -3.147264242E+01 -8.617862126E+02  8.623702097E+02  1.078959322E-05  0.00000E+00  9.000E+00
#rwgt            1           1   3.5409531602046990E-002           8      492726           0
</event>
<event>
      5   9999  3.79277E-02  4.71763E+01 -1.00000E+00  1.40531E-01
      21    -1     0     0   511   501  0.000000000E+00  0.000000000E+00  3.693768248E+02  3.693768248E+02  0.000000000E+00  0.00000E+00  9.000E+00
      21    -1     0     0   501   502  0.000000000E+00  0.000000000E+00 -1.667914124E+02  1.667914124E+02  0.000000000E+00  0.00000E+00  9.000E+00
      25     1     1     2     0     0 -8.658887108E+01 -1.352625482E+01  1.805307307E+02  2.364253305E+02  1.250000000E+02  0.00000E+00  9.000E+00
      25     1     1     2     0     0  7.382998543E+01  5.894451154E+01 -8.821059581E+01  1.798094308E+02  1.250000000E+02  0.00000E+00  9.000E+00
      21     1     1     2   511   502  1.275888564E+01 -4.541825671E+01  1.102652775E+02  1.199334758E+02  1.348699152E-06  0.00000E+00  9.000E+00
#rwgt            1           1   4.3979719775771316E-002           8      492866           0
</event>
<event>
      5   9999  3.79277E-02  1.85096E+01 -1.00000E+00  1.69193E-01
      21    -1     0     0   502   501  0.000000000E+00  0.000000000E+00  3.551061270E+02  3.551061270E+02  0.000000000E+00  0.00000E+00  9.000E+00
      21    -1     0     0   512   502  0.000000000E+00  0.000000000E+00 -3.081692801E+02  3.081692801E+02  0.000000000E+00  0.00000E+00  9.000E+00
      25     1     1     2     0     0  1.006282478E+02 -5.084873451E+01  2.490610030E+02  3.006127430E+02  1.250000000E+02  0.00000E+00  9.000E+00
      25     1     1     2     0     0 -9.011414716E+01  3.561519189E+01  1.533515558E+00  1.581655875E+02  1.250000000E+02  0.00000E+00  9.000E+00
      21     1     1     2   512   501 -1.051410064E+01  1.523354262E+01 -2.036576716E+02  2.044970766E+02  0.000000000E+00  0.00000E+00  9.000E+00
#rwgt            1           1   3.9805360288462807E-002           8      493036           0
</event>
<event>
      5   9999  3.79277E-02  4.95401E+01 -1.00000E+00  1.39305E-01
      21    -1     0     0   502   501  0.000000000E+00  0.000000000E+00  7.817149178E+01  7.817149178E+01  0.000000000E+00  0.00000E+00  9.000E+00
      21    -1     0     0   501   511  0.000000000E+00  0.000000000E+00 -5.354740612E+02  5.354740612E+02  0.000000000E+00  0.00000E+00  9.000E+00
      25     1     1     2     0     0  7.055467404E+01 -1.387422038E+01 -1.697401860E+02  2.227267087E+02  1.250000000E+02  0.00000E+00  9.000E+00
      25     1     1     2     0     0 -1.200904833E+02  1.452405564E+01 -1.082291792E+02  2.048688058E+02  1.250000000E+02  0.00000E+00  9.000E+00
      21     1     1     2   502   511  4.953580922E+01 -6.498352542E-01 -1.793332042E+02  1.860500385E+02  2.697398305E-06  0.00000E+00  9.000E+00
#rwgt            2          11   1.0151888259836922E-003           8      493208           0
</event>
<event>
      5   9999  3.79277E-02  1.42384E+01 -1.00000E+00  1.79542E-01
      21    -1     0     0   502   501  0.000000000E+00  0.000000000E+00  1.417950161E+03  1.417950161E+03  0.000000000E+00  0.00000E+00  9.000E+00
      21    -1     0     0   501   512  0.000000000E+00  0.000000000E+00 -2.618498990E+02  2.618498990E+02  0.000000000E+00  0.00000E+00  9.000E+00
      25     1     1     2     0     0  4.343137745E+00 -1.245266228E+02  3.210976148E+02  3.664074520E+02  1.250000000E+02  0.00000E+00  9.000E+00
      25     1     1     2     0     0 -2.014377131E-01  1.381493281E+02  1.065898494E+03  1.082058167E+03  1.250000000E+02  0.00000E+00  9.000E+00
      21     1     1     2   502   512 -4.141700032E+00 -1.362270528E+01 -2.308958465E+02  2.313344413E+02  6.031565972E-06  0.00000E+00  9.000E+00
#rwgt            1           1   1.5796257553285727E-002           8      493243           0
</event>
<event>
      5   9999  3.79277E-02  6.77132E+01 -1.00000E+00  1.31955E-01
      21    -1     0     0   502   501  0.000000000E+00  0.000000000E+00  7.705591804E+02  7.705591804E+02  0.000000000E+00  0.00000E+00  9.000E+00
       2    -1     0     0   501     0  0.000000000E+00  0.000000000E+00 -3.136568604E+02  3.136568604E+02  0.000000000E+00  0.00000E+00  9.000E+00
      25     1     1     2     0     0  2.063905967E+02  1.168681518E+01  4.781339955E+02  5.356965351E+02  1.250000000E+02  0.00000E+00  9.000E+00
      25     1     1     2     0     0 -2.211213390E+02 -7.777828672E+01  1.900636324E+02  3.266393926E+02  1.250000000E+02  0.00000E+00  9.000E+00
       2     1     1     2   502     0  1.473074233E+01  6.609147154E+01 -2.112953080E+02  2.218801130E+02  2.697398305E-06  0.00000E+00  9.000E+00
#rwgt            1           1   3.8258095021178933E-002           8      493450           0
</event>
<event>
      5   9999  3.79277E-02  5.03401E+01 -1.00000E+00  1.38908E-01
      21    -1     0     0   502   501  0.000000000E+00  0.000000000E+00  4.345512644E+02  4.345512644E+02  0.000000000E+00  0.00000E+00  9.000E+00
      21    -1     0     0   511   502  0.000000000E+00  0.000000000E+00 -2.101333273E+02  2.101333273E+02  0.000000000E+00  0.00000E+00  9.000E+00
      25     1     1     2     0     0  3.546813688E+01 -1.961393014E+01  2.488471988E+01  1.337420812E+02  1.250000000E+02  0.00000E+00  9.000E+00
      25     1     1     2     0     0 -9.798166331E+00 -2.368937180E+01  3.392392287E+02  3.624437125E+02  1.250000000E+02  0.00000E+00  9.000E+00
      21     1     1     2   511   501 -2.566997055E+01  4.330330195E+01 -1.397060116E+02  1.484987981E+02  1.907348633E-06  0.00000E+00  9.000E+00
#rwgt            1           1   1.7664972255387313E-002           8      493618           0
</event>
<event>
      5   9999  3.79277E-02  7.20495E+01 -1.00000E+00  1.30589E-01
      21    -1     0     0   502   501  0.000000000E+00  0.000000000E+00  6.456254617E+02  6.456254617E+02  0.000000000E+00  0.00000E+00  9.000E+00
      21    -1     0     0   501   512  0.000000000E+00  0.000000000E+00 -2.354341403E+02  2.354341403E+02  0.000000000E+00  0.00000E+00  9.000E+00
      25     1     1     2     0     0  7.466572169E+00  1.123435130E+02  5.074033994E+02  5.345652666E+02  1.250000000E+02  0.00000E+00  9.000E+00
      25     1     1     2     0     0 -7.018982424E+01 -1.477966169E+02  2.213236555E+01  2.070876457E+02  1.250000000E+02  0.00000E+00  9.000E+00
      21     1     1     2   502   512  6.272325207E+01  3.545310394E+01 -1.193444435E+02  1.394066897E+02  2.336015456E-06  0.00000E+00  9.000E+00
#rwgt            1           1   4.9829352428902678E-002           8      493774           0
</event>
<event>
      5   9999  3.79277E-02  4.74198E+01 -1.00000E+00  1.40401E-01
      21    -1     0     0   502   501  0.000000000E+00  0.000000000E+00  3.878080430E+02  3.878080430E+02  0.000000000E+00  0.00000E+00  9.000E+00
      21    -1     0     0   501   511  0.000000000E+00  0.000000000E+00 -5.312872519E+02  5.312872519E+02  0.000000000E+00  0.00000E+00  9.000E+00
      25     1     1     2     0     0  3.314300787E+02  2.201176881E+02 -6.662667839E+01  4.223290281E+02  1.250000000E+02  0.00000E+00  9.000E+00
      25     1     1     2     0     0 -3.746536812E+02 -2.006148225E+02 -6.359211622E+01  4.475272562E+02  1.250000000E+02  0.00000E+00  9.000E+00
      21     1     1     2   502   511  4.322360245E+01 -1.950286555E+01 -1.326041425E+01  4.923901054E+01  2.920019320E-07  0.00000E+00  9.000E+00
#rwgt            1           1   4.4804717617487444E-002           8      493902           0
</event>
<event>
      5   9999  3.79277E-02  6.51540E+01 -1.00000E+00  1.32818E-01
      21    -1     0     0   502   501  0.000000000E+00  0.000000000E+00  2.403069147E+02  2.403069147E+02  0.000000000E+00  0.00000E+00  9.000E+00
       1    -1     0     0   501     0  0.000000000E+00  0.000000000E+00 -4.305878202E+02  4.305878202E+02  0.000000000E+00  0.00000E+00  9.000E+00
      25     1     1     2     0     0  1.404335652E+02 -2.324046759E+01  6.449626418E+01  2.001161504E+02  1.250000000E+02  0.00000E+00  9.000E+00
      25     1     1     2     0     0 -1.558424886E+02  8.654613992E+01 -1.051265450E+01  2.179739239E+02  1.250000000E+02  0.00000E+00  9.000E+00
       1     1     1     2   502     0  1.540892342E+01 -6.330567234E+01 -2.442645151E+02  2.528046606E+02  2.697398305E-06  0.00000E+00  9.000E+00
#rwgt            1           1   3.3190683291038976E-002           8      494027           0
</event>
<event>
      5   9999  3.79277E-02  5.85112E+01 -1.00000E+00  1.35289E-01
       1    -1     0     0   502     0  0.000000000E+00  0.000000000E+00  1.453334543E+03  1.453334543E+03  0.000000000E+00  0.00000E+00  9.000E+00
      21    -1     0     0   501   502  0.000000000E+00  0.000000000E+00 -8.954300229E+01  8.954300229E+01  0.000000000E+00  0.00000E+00  9.000E+00
      25     1     1     2     0     0 -1.418224425E+02 -7.529084910E+01  1.063532085E+03  1.082823999E+03  1.250000000E+02  0.00000E+00  9.000E+00
      25     1     1     2     0     0  1.450856474E+02  1.337110262E+02  1.047577163E+02  2.559837157E+02  1.250000000E+02  0.00000E+00  9.000E+00
       1     1     1     2   501     0 -3.263204896E+00 -5.842017706E+01  1.955017395E+02  2.040698306E+02  2.697398305E-06  0.00000E+00  9.000E+00
#rwgt            1           1   2.4541205108986686E-003           8      494163           0
</event>
<event>
      5   9999  3.79277E-02  3.67910E+01 -1.00000E+00  1.47129E-01
      21    -1     0     0   502   511  0.000000000E+00  0.000000000E+00  1.238237921E+02  1.238237921E+02  0.000000000E+00  0.00000E+00  9.000E+00
      21    -1     0     0   501   502  0.000000000E+00  0.000000000E+00 -3.820028403E+02  3.820028403E+02  0.000000000E+00  0.00000E+00  9.000E+00
      25     1     1     2     0     0 -9.144580283E+01 -8.871538690E+01 -2.129440965E+02  2.778541757E+02  1.250000000E+02  0.00000E+00  9.000E+00
      25     1     1     2     0     0  6.781930981E+01  1.169176729E+02 -5.025721298E+01  1.908402171E+02  1.250000000E+02  0.00000E+00  9.000E+00
      21     1     1     2   501   511  2.362649302E+01 -2.820228597E+01  5.022261278E+00  3.713223956E+01  5.297776709E-07  0.00000E+00  9.000E+00
#rwgt            1           1   3.0073007194287720E-002           8      494574           0
</event>
<event>
      5   9999  3.79277E-02  7.99342E+01 -1.00000E+00  1.28367E-01
      21    -1     0     0   502   501  0.000000000E+00  0.000000000E+00  2.717190809E+02  2.717190809E+02  0.000000000E+00  0.00000E+00  9.000E+00
      21    -1     0     0   501   512  0.000000000E+00  0.000000000E+00 -1.642273782E+02  1.642273782E+02  0.000000000E+00  0.00000E+00  9.000E+00
      25     1     1     2     0     0  3.688122499E+01 -4.372086298E+01  1.535302509E+02  2.060783262E+02  1.250000000E+02  0.00000E+00  9.000E+00
      25     1     1     2     0     0  3.892688216E+01  1.837117001E+01  9.483020593E+00  1.325433126E+02  1.250000000E+02  0.00000E+00  9.000E+00
      21     1     1     2   502   512 -7.580810715E+01  2.534969296E+01 -5.552156874E+01  9.732482026E+01  9.536743164E-07  0.00000E+00  9.000E+00
#rwgt            2          11   1.6020706950757991E-003           8      494739           0
</event>
<event>
      5   9999  3.79277E-02  1.19625E+02 -1.00000E+00  1.20426E-01
      21    -1     0     0   511   501  0.000000000E+00  0.000000000E+00  3.987804306E+02  3.987804306E+02  0.000000000E+00  0.00000E+00  9.000E+00
      21    -1     0     0   501   502  0.000000000E+00  0.000000000E+00 -1.554763194E+03  1.554763194E+03  0.000000000E+00  0.00000E+00  9.000E+00
      25     1     1     2     0     0  1.238243046E+02  3.463926982E+01 -2.154109900E+02  2.802841987E+02  1.250000000E+02  0.00000E+00  9.000E+00
      25     1     1     2     0     0 -9.063578572E+01 -1.495679013E+02 -1.287998956E+03  1.305814578E+03  1.250000000E+02  0.00000E+00  9.000E+00
      21     1     1     2   511   502 -3.318851891E+01  1.149286315E+02  3.474271830E+02  3.674448470E+02  1.078959322E-05  0.00000E+00  9.000E+00
#rwgt            1           1   3.8428615970046549E-002           8      494774           0
</event>
<event>
      5   9999  3.79277E-02  9.41565E+00 -1.00000E+00  1.98829E-01
      21    -1     0     0   502   501  0.000000000E+00  0.000000000E+00  2.100621943E+02  2.100621943E+02  0.000000000E+00  0.00000E+00  9.000E+00
       2    -1     0     0   501     0  0.000000000E+00  0.000000000E+00 -1.769039923E+03  1.769039923E+03  0.000000000E+00  0.00000E+00  9.000E+00
      25     1     1     2     0     0  5.304135595E+01  1.143285341E+02 -8.532185590E+01  1.969497861E+02  1.250000000E+02  0.00000E+00  9.000E+00
      25     1     1     2     0     0 -6.227425770E+01 -1.161746238E+02  1.007446588E+02  2.077236449E+02  1.250000000E+02  0.00000E+00  9.000E+00
       2     1     1     2   502     0  9.232901754E+00  1.846089721E+00 -1.574400531E+03  1.574428686E+03  2.157918644E-05  0.00000E+00  9.000E+00
#rwgt            1           1   4.6820679159325869E-002           8      495007           0
</event>
<event>
      5   9999  3.79277E-02  4.00661E+01 -1.00000E+00  1.44796E-01
      21    -1     0     0   511   501  0.000000000E+00  0.000000000E+00  1.428429852E+02  1.428429852E+02  0.000000000E+00  0.00000E+00  9.000E+00
      21    -1     0     0   501   502  0.000000000E+00  0.000000000E+00 -2.923713702E+02  2.923713702E+02  0.000000000E+00  0.00000E+00  9.000E+00
      25     1     1     2     0     0 -2.822949798E+01 -6.220317832E-01  4.724854479E+01  1.365822699E+02  1.250000000E+02  0.00000E+00  9.000E+00
      25     1     1     2     0     0  1.703052953E+01 -3.784707542E+01 -2.169296603E+02  2.537832098E+02  1.250000000E+02  0.00000E+00  9.000E+00
      21     1     1     2   511   502  1.119896845E+01  3.846910721E+01  2.015273048E+01  4.484887568E+01  5.840038640E-07  0.00000E+00  9.000E+00
#rwgt            1           1   4.7971985742435233E-002           8      495272           0
</event>
<event>
      5   9999  3.79277E-02  3.52996E+01 -1.00000E+00  1.48290E-01
      21    -1     0     0   502   512  0.000000000E+00  0.000000000E+00  3.435919271E+02  3.435919271E+02  0.000000000E+00  0.00000E+00  9.000E+00
      21    -1     0     0   501   502  0.000000000E+00  0.000000000E+00 -7.167371865E+02  7.167371865E+02  0.000000000E+00  0.00000E+00  9.000E+00
      25     1     1     2     0     0  1.779791292E+02 -7.382286176E+01 -3.343152364E+02  4.056082625E+02  1.250000000E+02  0.00000E+00  9.000E+00
      25     1     1     2     0     0 -1.579817884E+02  1.029118059E+02 -3.086100924E+02  3.826411823E+02  1.250000000E+02  0.00000E+00  9.000E+00
      21     1     1     2   501   512 -1.999734072E+01 -2.908894411E+01  2.697800694E+02  2.720796688E+02  0.000000000E+00  0.00000E+00  9.000E+00
#rwgt            1           1   3.5722718397139107E-002           8      495419           0
</event>
<event>
      5   9999  3.79277E-02  5.04349E+01 -1.00000E+00  1.38861E-01
      21    -1     0     0   511   501  0.000000000E+00  0.000000000E+00  5.499505073E+02  5.499505073E+02  0.000000000E+00  0.00000E+00  9.000E+00
      21    -1     0     0   501   502  0.000000000E+00  0.000000000E+00 -1.474035724E+02  1.474035724E+02  0.000000000E+00  0.00000E+00  9.000E+00
      25     1     1     2     0     0  6.124652554E+00 -1.476645887E+02  1.881561742E+02  2.699446017E+02  1.250000000E+02  0.00000E+00  9.000E+00
      25     1     1     2     0     0  6.115208433E+00  1.965917656E+02  2.848161721E+01  2.347805796E+02  1.250000000E+02  0.00000E+00  9.000E+00
      21     1     1     2   511   502 -1.223986099E+01 -4.892717683E+01  1.859091435E+02  1.926288983E+02  2.697398305E-06  0.00000E+00  9.000E+00
#rwgt            1           1   4.2540265079815280E-002           8      495583           0
</event>
<event>
      5   9999  3.79277E-02  4.84713E+01 -1.00000E+00  1.39849E-01
      21    -1     0     0   502   501  0.000000000E+00  0.000000000E+00  3.034136615E+02  3.034136615E+02  0.000000000E+00  0.00000E+00  9.000E+00
      21    -1     0     0   512   502  0.000000000E+00  0.000000000E+00 -4.652303513E+02  4.652303513E+02  0.000000000E+00  0.00000E+00  9.000E+00
      25     1     1     2     0     0  8.486532831E+01  5.364671681E+01  2.185271986E+02  2.710336339E+02  1.250000000E+02  0.00000E+00  9.000E+00
      25     1     1     2     0     0 -1.273442485E+02 -7.699210731E+01 -1.107318120E+02  2.236758288E+02  1.250000000E+02  0.00000E+00  9.000E+00
      21     1     1     2   512   501  4.247892019E+01  2.334539050E+01 -2.696120765E+02  2.739345500E+02  3.814697266E-06  0.00000E+00  9.000E+00
#rwgt            1           1   3.6137142262571441E-002           8      495697           0
</event>
<event>
      5   9999  3.79277E-02  3.64590E+01 -1.00000E+00  1.47382E-01
      21    -1     0     0   511   501  0.000000000E+00  0.000000000E+00  1.418747059E+02  1.418747059E+02  0.000000000E+00  0.00000E+00  9.000E+00
      21    -1     0     0   501   502  0.000000000E+00  0.000000000E+00 -4.394504727E+02  4.394504727E+02  0.000000000E+00  0.00000E+00  9.000E+00
      25     1     1     2     0     0 -3.420746753E+01 -3.692634257E+01  2.797585706E+01  1.376275924E+02  1.250000000E+02  0.00000E+00  9.000E+00
      25     1     1     2     0     0  4.788274232E+00  1.539101341E+01 -3.672694629E+02  3.882932774E+02  1.250000000E+02  0.00000E+00  9.000E+00
      21     1     1     2   511   502  2.941919330E+01  2.153532916E+01  4.171783910E+01  5.540430882E+01  6.743495762E-07  0.00000E+00  9.000E+00
#rwgt            1           1   5.1635413251134576E-002           8      495823           0
</event>
<event>
      5   9999  3.79277E-02  1.03551E+02 -1.00000E+00  1.23150E-01
      21    -1     0     0   502   512  0.000000000E+00  0.000000000E+00  1.038028219E+02  1.038028219E+02  0.000000000E+00  0.00000E+00  9.000E+00
      21    -1     0     0   501   502  0.000000000E+00  0.000000000E+00 -2.934416065E+03  2.934416065E+03  0.000000000E+00  0.00000E+00  9.000E+00
      25     1     1     2     0     0  6.198041105E+01  1.050416164E+01 -5.660751469E+02  5.831106076E+02  1.250000000E+02  0.00000E+00  9.000E+00
      25     1     1     2     0     0  1.305942391E+01 -8.186135320E+01 -2.328545911E+03  2.333371572E+03  1.250000000E+02  0.00000E+00  9.000E+00
      21     1     1     2   501   512 -7.503983496E+01  7.135719156E+01  6.400781519E+01  1.217367078E+02  2.523185073E-06  0.00000E+00  9.000E+00
#rwgt            1           1   2.7625742718861312E-002           8      496019           0
</event>
<event>
      5   9999  3.79277E-02  7.74259E+01 -1.00000E+00  1.29041E-01
      21    -1     0     0   511   501  0.000000000E+00  0.000000000E+00  1.243441937E+02  1.243441937E+02  0.000000000E+00  0.00000E+00  9.000E+00
      21    -1     0     0   501   502  0.000000000E+00  0.000000000E+00 -8.058384351E+02  8.058384351E+02  0.000000000E+00  0.00000E+00  9.000E+00
      25     1     1     2     0     0  1.918078139E+01 -2.239288888E+02 -2.051874501E+02  3.289968682E+02  1.250000000E+02  0.00000E+00  9.000E+00
      25     1     1     2     0     0 -9.598751163E+01  2.141566391E+02 -4.434887252E+02  5.170917886E+02  1.250000000E+02  0.00000E+00  9.000E+00
      21     1     1     2   511   502  7.680673024E+01  9.772249715E+00 -3.281806619E+01  8.409397209E+01  8.259061849E-07  0.00000E+00  9.000E+00
#rwgt            1           1   3.7726240342885568E-002           8      496082           0
</event>
<event>
      5   9999  3.79277E-02  1.71598E+02 -1.00000E+00  1.14124E-01
      21    -1     0     0   502   512  0.000000000E+00  0.000000000E+00  1.690561970E+02  1.690561970E+02  0.000000000E+00  0.00000E+00  9.000E+00
      21    -1     0     0   501   502  0.000000000E+00  0.000000000E+00 -1.731281005E+03  1.731281005E+03  0.000000000E+00  0.00000E+00  9.000E+00
      25     1     1     2     0     0  1.309766837E+02 -1.827347854E+02 -9.330750006E+02  9.678847298E+02  1.250000000E+02  0.00000E+00  9.000E+00
      25     1     1     2     0     0  2.570817788E+01  1.127643423E+02 -7.189033857E+02  7.387988802E+02  1.250000000E+02  0.00000E+00  9.000E+00
      21     1     1     2   501   512 -1.566848616E+02  6.997044314E+01  8.975357859E+01  1.936535918E+02  5.878843310E-06  0.00000E+00  9.000E+00
#rwgt            2          11   6.3552851216620194E-003           8      496263           0
</event>
<event>
      5   9999  3.79277E-02  1.18521E+02 -1.00000E+00  1.20597E-01
      21    -1     0     0   502   501  0.000000000E+00  0.000000000E+00  8.834473574E+02  8.834473574E+02  0.000000000E+00  0.00000E+00  9.000E+00
      21    -1     0     0   511   502  0.000000000E+00  0.000000000E+00 -9.831400883E+01  9.831400883E+01  0.000000000E+00  0.00000E+00  9.000E+00
      25     1     1     2     0     0 -2.070080903E+02 -3.836232568E+01  4.753864479E+02  5.347347869E+02  1.250000000E+02  0.00000E+00  9.000E+00
      25     1     1     2     0     0  1.468871365E+02 -6.377826480E+01  1.817464649E+02  2.725807686E+02  1.250000000E+02  0.00000E+00  9.000E+00
      21     1     1     2   511   501  6.012095382E+01  1.021405905E+02  1.280004358E+02  1.744458107E+02  3.814697266E-06  0.00000E+00  9.000E+00
#rwgt            1           1   4.0065512643564914E-002           8      496298           0
</event>
<event>
      5   9999  3.79277E-02  2.65595E+01 -1.00000E+00  1.56807E-01
      21    -1     0     0   502   512  0.000000000E+00  0.000000000E+00  6.893707889E+01  6.893707889E+01  0.000000000E+00  0.00000E+00  9.000E+00
      21    -1     0     0   501   502  0.000000000E+00  0.000000000E+00 -5.971486359E+02  5.971486359E+02  0.000000000E+00  0.00000E+00  9.000E+00
      25     1     1     2     0     0  3.617665321E+01  6.433047652E+01 -4.064859854E+02  4.316283317E+02  1.250000000E+02  0.00000E+00  9.000E+00
      25     1     1     2     0     0 -5.042902789E+01 -8.674204693E+01 -1.302786953E+02  2.065546126E+02  1.250000000E+02  0.00000E+00  9.000E+00
      21     1     1     2   501   512  1.425237468E+01  2.241157041E+01  8.553123656E+00  2.790277041E+01  6.419616708E-07  0.00000E+00  9.000E+00
#rwgt            1           1   4.1335975772156183E-002           8      496444           0
</event>
<event>
      5   9999  3.79277E-02  8.78192E+01 -1.00000E+00  1.26419E-01
       5    -1     0     0   502     0  0.000000000E+00  0.000000000E+00  2.243709414E+02  2.243709414E+02  0.000000000E+00  0.00000E+00  9.000E+00
      21    -1     0     0   501   502  0.000000000E+00  0.000000000E+00 -2.470612899E+02  2.470612899E+02  0.000000000E+00  0.00000E+00  9.000E+00
      25     1     1     2     0     0  8.589226776E+01 -4.568805430E+01  7.246810885E+01  1.741881361E+02  1.250000000E+02  0.00000E+00  9.000E+00
      25     1     1     2     0     0 -5.041107767E+01  1.260204308E+02 -9.888517135E+01  2.093458928E+02  1.250000000E+02  0.00000E+00  9.000E+00
       5     1     1     2   501     0 -3.548119010E+01 -8.033237651E+01  3.726713967E+00  8.789820228E+01  1.472729337E-06  0.00000E+00  9.000E+00
#rwgt            1           1   1.4462137053090808E-002           8      496643           0
</event>
<event>
      5   9999  3.79277E-02  6.86672E+01 -1.00000E+00  1.31645E-01
      21    -1     0     0   502   511  0.000000000E+00  0.000000000E+00  8.642217645E+02  8.642217645E+02  0.000000000E+00  0.00000E+00  9.000E+00
      21    -1     0     0   501   502  0.000000000E+00  0.000000000E+00 -1.412187353E+02  1.412187353E+02  0.000000000E+00  0.00000E+00  9.000E+00
      25     1     1     2     0     0  6.466556225E+01  1.192470333E+02 -1.817595461E+01  1.853560229E+02  1.250000000E+02  0.00000E+00  9.000E+00
      25     1     1     2     0     0 -1.163293756E+01 -1.628672716E+02  2.480753725E+02  3.222226929E+02  1.250000000E+02  0.00000E+00  9.000E+00
      21     1     1     2   501   511 -5.303262469E+01  4.362023827E+01  4.931036113E+02  4.978617840E+02  0.000000000E+00  0.00000E+00  9.000E+00
#rwgt            1           1   4.4889707109729331E-002           8      496692           0
</event>
<event>
      5   9999  3.79277E-02  5.77823E+01 -1.00000E+00  1.35583E-01
      21    -1     0     0   502   501  0.000000000E+00  0.000000000E+00  2.692140308E+02  2.692140308E+02  0.000000000E+00  0.00000E+00  9.000E+00
       2    -1     0     0   501     0  0.000000000E+00  0.000000000E+00 -1.750455150E+03  1.750455150E+03  0.000000000E+00  0.00000E+00  9.000E+00
      25     1     1     2     0     0  8.089484717E+01  2.460299000E+02 -6.117919266E+01  2.940111930E+02  1.250000000E+02  0.00000E+00  9.000E+00
      25     1     1     2     0     0 -1.386768790E+02 -2.462025256E+02 -4.602499282E+00  3.090196489E+02  1.250000000E+02  0.00000E+00  9.000E+00
       2     1     1     2   502     0  5.778203181E+01  1.726256822E-01 -1.415459428E+03  1.416638339E+03  2.157918644E-05  0.00000E+00  9.000E+00
#rwgt            1           1   1.4665013312938284E-002           8      496764           0
</event>
<event>
      5   9999  3.79277E-02  1.70915E+01 -1.00000E+00  1.72204E-01
      21    -1     0     0   502   511  0.000000000E+00  0.000000000E+00  7.245093428E+02  7.245093428E+02  0.000000000E+00  0.00000E+00  9.000E+00
      21    -1     0     0   501   502  0.000000000E+00  0.000000000E+00 -5.968913644E+01  5.968913644E+01  0.000000000E+00  0.00000E+00  9.000E+00
      25     1     1     2     0     0 -9.693417309E+01  1.209105942E+02  2.648715038E+02  3.313570872E+02  1.250000000E+02  0.00000E+00  9.000E+00
      25     1     1     2     0     0  8.069061995E+01 -1.262273520E+02  3.624094685E+02  4.115943919E+02  1.250000000E+02  0.00000E+00  9.000E+00
      21     1     1     2   501   511  1.624355314E+01  5.316757847E+00  3.753923402E+01  4.124700017E+01  4.768371582E-07  0.00000E+00  9.000E+00
#rwgt            1           1   3.3500440960816301E-002           8      496860           0
</event>
<event>
      5   9999  3.79277E-02  1.21156E+02 -1.00000E+00  1.20192E-01
      21    -1     0     0   502   501  0.000000000E+00  0.000000000E+00  5.544479787E+02  5.544479787E+02  0.000000000E+00  0.00000E+00  9.000E+00
       2    -1     0     0   501     0  0.000000000E+00  0.000000000E+00 -8.652950662E+02  8.652950662E+02  0.000000000E+00  0.00000E+00  9.000E+00
      25     1     1     2     0     0  1.861621901E+02  2.623076927E+02  2.313236341E+02  4.154483245E+02  1.250000000E+02  0.00000E+00  9.000E+00
      25     1     1     2     0     0 -7.008355981E+01 -2.276026926E+02  1.456635004E+02  3.058717810E+02  1.250000000E+02  0.00000E+00  9.000E+00
       2     1     1     2   502     0 -1.160786303E+02 -3.470500005E+01 -6.878342220E+02  6.984229394E+02  1.078959322E-05  0.00000E+00  9.000E+00
#rwgt            1           1   3.3603525127676066E-002           8      497050           0
</event>
<event>
      5   9999  3.79277E-02  3.31003E+01 -1.00000E+00  1.50131E-01
      21    -1     0     0   502   511  0.000000000E+00  0.000000000E+00  7.742060229E+01  7.742060229E+01  0.000000000E+00  0.00000E+00  9.000E+00
      21    -1     0     0   501   502  0.000000000E+00  0.000000000E+00 -1.024765877E+03  1.024765877E+03  0.000000000E+00  0.00000E+00  9.000E+00
      25     1     1     2     0     0 -1.604617981E+02 -1.337567784E+02 -6.127536173E+02  6.593412318E+02  1.250000000E+02  0.00000E+00  9.000E+00
      25     1     1     2     0     0  1.449465606E+02  1.045180335E+02 -3.450005801E+02  4.081469405E+02  1.250000000E+02  0.00000E+00  9.000E+00
      21     1     1     2   501   511  1.551523749E+01  2.923874488E+01  1.040892314E+01  3.469830655E+01  7.251217997E-07  0.00000E+00  9.000E+00
#rwgt            1           1   6.6996546791493569E-002           8      497292           0
</event>
<event>
      5   9999  3.79277E-02  9.68341E+01 -1.00000E+00  1.24460E-01
      21    -1     0     0   512   501  0.000000000E+00  0.000000000E+00  2.140076392E+02  2.140076392E+02  0.000000000E+00  0.00000E+00  9.000E+00
      21    -1     0     0   501   502  0.000000000E+00  0.000000000E+00 -1.258734646E+03  1.258734646E+03  0.000000000E+00  0.00000E+00  9.000E+00
      25     1     1     2     0     0  1.012490731E+02 -1.033243638E+02 -5.931071963E+02  6.231600478E+02  1.250000000E+02  0.00000E+00  9.000E+00
      25     1     1     2     0     0 -7.714717210E+01  1.971110515E+02 -6.135184134E+02  6.609344115E+02  1.250000000E+02  0.00000E+00  9.000E+00
      21     1     1     2   512   502 -2.410190102E+01 -9.378668774E+01  1.618986030E+02  1.886478256E+02  2.697398305E-06  0.00000E+00  9.000E+00
#rwgt            1           1   4.4477931068136418E-002           8      497472           0
</event>
<event>
      5   9999  3.79277E-02  3.24390E+01 -1.00000E+00  1.50719E-01
      21    -1     0     0   511   501  0.000000000E+00  0.000000000E+00  3.694254320E+02  3.694254320E+02  0.000000000E+00  0.00000E+00  9.000E+00
      21    -1     0     0   501   502  0.000000000E+00  0.000000000E+00 -1.464655951E+02  1.464655951E+02  0.000000000E+00  0.00000E+00  9.000E+00
      25     1     1     2     0     0 -8.135293266E+01  1.102416354E+02  1.875874580E+02  2.637907736E+02  1.250000000E+02  0.00000E+00  9.000E+00
      25     1     1     2     0     0  1.115081646E+02 -1.221977086E+02  4.610538203E+00  2.073948115E+02  1.250000000E+02  0.00000E+00  9.000E+00
      21     1     1     2   511   502 -3.015523197E+01  1.195607316E+01  3.076184072E+01  4.470544201E+01  9.536743164E-07  0.00000E+00  9.000E+00
#rwgt            1           1   4.7257207297755746E-002           8      497518           0
</event>
<event>
      5   9999  3.79277E-02  3.85752E+01 -1.00000E+00  1.45824E-01
      21    -1     0     0   502   512  0.000000000E+00  0.000000000E+00  2.056740577E+02  2.056740577E+02  0.000000000E+00  0.00000E+00  9.000E+00
      21    -1     0     0   501   502  0.000000000E+00  0.000000000E+00 -2.997166408E+02  2.997166408E+02  0.000000000E+00  0.00000E+00  9.000E+00
      25     1     1     2     0     0  3.492332659E+01  4.205805620E+01  1.238938166E+02  1.842910650E+02  1.250000000E+02  0.00000E+00  9.000E+00
      25     1     1     2     0     0 -6.971379818E+01 -5.872140078E+01 -2.330043919E+02  2.796860083E+02  1.250000000E+02  0.00000E+00  9.000E+00
      21     1     1     2   501   512  3.479047159E+01  1.666334458E+01  1.506799225E+01  4.141362526E+01  9.536743164E-07  0.00000E+00  9.000E+00
#rwgt            1           1   4.1983817723165014E-002           8      497745           0
</event>
<event>
      5   9999  3.79277E-02  1.44923E+02 -1.00000E+00  1.16989E-01
      21    -1     0     0   502   511  0.000000000E+00  0.000000000E+00  2.265314985E+02  2.265314985E+02  0.000000000E+00  0.00000E+00  9.000E+00
      21    -1     0     0   501   502  0.000000000E+00  0.000000000E+00 -7.715352952E+02  7.715352952E+02  0.000000000E+00  0.00000E+00  9.000E+00
      25     1     1     2     0     0 -1.786961962E+02  1.397868193E+02 -4.571322208E+02  5.254213097E+02  1.250000000E+02  0.00000E+00  9.000E+00
      25     1     1     2     0     0  2.011505088E+02  3.386177376E+00 -1.829820243E+02  2.992998740E+02  1.250000000E+02  0.00000E+00  9.000E+00
      21     1     1     2   501   511 -2.245431255E+01 -1.431729967E+02  9.511044840E+01  1.733456100E+02  2.697398305E-06  0.00000E+00  9.000E+00
#rwgt            1           1   3.7248127343765029E-002           8      497957           0
</event>
<event>
      5   9999  3.79277E-02  6.57276E+01 -1.00000E+00  1.32621E-01
      21    -1     0     0   502   501  0.000000000E+00  0.000000000E+00  1.824305404E+02  1.824305404E+02  0.000000000E+00  0.00000E+00  9.000E+00
       2    -1     0     0   501     0  0.000000000E+00  0.000000000E+00 -1.411509601E+03  1.411509601E+03  0.000000000E+00  0.00000E+00  9.000E+00
      25     1     1     2     0     0  4.243979491E+00 -1.513485408E+02  7.377925720E+01  2.097445374E+02  1.250000000E+02  0.00000E+00  9.000E+00
      25     1     1     2     0     0  5.333776269E+01  1.196552733E+02 -1.666521357E+02  2.460898935E+02  1.250000000E+02  0.00000E+00  9.000E+00
       2     1     1     2   502     0 -5.758174218E+01  3.169326754E+01 -1.136206182E+03  1.138105711E+03  2.642899792E-05  0.00000E+00  9.000E+00
#rwgt            1           1   3.7177743621921611E-002           8      498033           0
</event>
<event>
      5   9999  3.79277E-02  2.47466E+01 -1.00000E+00  1.59083E-01
      21    -1     0     0   502   501  0.000000000E+00  0.000000000E+00  1.334255749E+03  1.334255749E+03  0.000000000E+00  0.00000E+00  9.000E+00
      21    -1     0     0   501   511  0.000000000E+00  0.000000000E+00 -8.085803475E+01  8.085803475E+01  0.000000000E+00  0.00000E+00  9.000E+00
      25     1     1     2     0     0 -1.217835520E+02  9.839699203E+01  1.169557682E+03  1.186593179E+03  1.250000000E+02  0.00000E+00  9.000E+00
      25     1     1     2     0     0  1.009335652E+02 -8.506764720E+01  5.377455222E+01  1.895805677E+02  1.250000000E+02  0.00000E+00  9.000E+00
      21     1     1     2   502   511  2.084998678E+01 -1.332934483E+01  3.006548057E+01  3.894003729E+01  5.840038640E-07  0.00000E+00  9.000E+00
#rwgt            1           1   3.2988906785266406E-002           8      498116           0
</event>
<event>
      5   9999  3.79277E-02  2.18974E+01 -1.00000E+00  1.63185E-01
      21    -1     0     0   512   501  0.000000000E+00  0.000000000E+00  1.065025679E+03  1.065025679E+03  0.000000000E+00  0.00000E+00  9.000E+00
      21    -1     0     0   501   502  0.000000000E+00  0.000000000E+00 -3.392413549E+01  3.392413549E+01  0.000000000E+00  0.00000E+00  9.000E+00
      25     1     1     2     0     0  4.243480530E+01 -8.227066750E+01  6.715756812E+02  6.893533716E+02  1.250000000E+02  0.00000E+00  9.000E+00
      25     1     1     2     0     0 -2.108301030E+01  8.712830397E+01  2.204687300E+02  2.688257718E+02  1.250000000E+02  0.00000E+00  9.000E+00
      21     1     1     2   512   502 -2.135179500E+01 -4.857636469E+00  1.390571325E+02  1.407706712E+02  1.907348633E-06  0.00000E+00  9.000E+00
#rwgt            1           1   5.7256547500074868E-002           8      498390           0
</event>
<event>
      5   9999  3.79277E-02  3.89424E+01 -1.00000E+00  1.45566E-01
      21    -1     0     0   502   511  0.000000000E+00  0.000000000E+00  1.417703611E+03  1.417703611E+03  0.000000000E+00  0.00000E+00  9.000E+00
      21    -1     0     0   501   502  0.000000000E+00  0.000000000E+00 -2.528850014E+02  2.528850014E+02  0.000000000E+00  0.00000E+00  9.000E+00
      25     1     1     2     0     0  8.138091129E+01 -1.397958203E+02  1.147809922E+00  2.044310191E+02  1.250000000E+02  0.00000E+00  9.000E+00
      25     1     1     2     0     0 -9.952620047E+01  1.053391713E+02 -9.027706138E+01  2.116051828E+02  1.250000000E+02  0.00000E+00  9.000E+00
      21     1     1     2   501   511  1.814528918E+01  3.445664899E+01  1.253947861E+03  1.254552410E+03  3.051757812E-05  0.00000E+00  9.000E+00
#rwgt            1           1   1.9255672129197692E-002           8      498513           0
</event>
<event>
      5   9999  3.79277E-02  2.40420E+01 -1.00000E+00  1.60032E-01
      21    -1     0     0   502   501  0.000000000E+00  0.000000000E+00  9.328478452E+02  9.328478452E+02  0.000000000E+00  0.00000E+00  9.000E+00
      21    -1     0     0   512   502  0.000000000E+00  0.000000000E+00 -5.991466372E+01  5.991466372E+01  0.000000000E+00  0.00000E+00  9.000E+00
      25     1     1     2     0     0  4.357505211E+01  1.598803789E+02  3.052274205E+02  3.691196269E+02  1.250000000E+02  0.00000E+00  9.000E+00
      25     1     1     2     0     0 -2.377790934E+01 -1.735219123E+02  5.573899038E+02  5.974811695E+02  1.250000000E+02  0.00000E+00  9.000E+00
      21     1     1     2   512   501 -1.979714276E+01  1.364153336E+01  1.031585717E+01  2.616171254E+01  5.462855929E-07  0.00000E+00  9.000E+00
#rwgt            1           1   4.0220716456191387E-002           8      498733           0
</event>
<event>
      5   9999  3.79277E-02  1.02162E+02 -1.00000E+00  1.23411E-01
       1    -1     0     0   502     0  0.000000000E+00  0.000000000E+00  1.379147544E+03  1.379147544E+03  0.000000000E+00  0.00000E+00  9.000E+00
      21    -1     0     0   501   502  0.000000000E+00  0.000000000E+00 -1.035579031E+02  1.035579031E+02  0.000000000E+00  0.00000E+00  9.000E+00
      25     1     1     2     0     0  2.315701599E+02  3.579596725E+00  2.552376547E+02  3.666180749E+02  1.250000000E+02  0.00000E+00  9.000E+00
      25     1     1     2     0     0 -1.606888614E+02 -7.715252180E+01  2.209694485E+02  3.102030286E+02  1.250000000E+02  0.00000E+00  9.000E+00
       1     1     1     2   501     0 -7.088129846E+01  7.357292507E+01  7.993825378E+02  8.058843437E+02  0.000000000E+00  0.00000E+00  9.000E+00
#rwgt            1           1   4.5101668880934788E-002           8      498835           0
</event>
<event>
      5   9999 -3.79277E-02  2.04220E+02 -1.00000E+00  1.11319E-01
      -3    -1     0     0     0   501  0.000000000E+00  0.000000000E+00  7.885637477E+02  7.885637477E+02  0.000000000E+00  0.00000E+00  9.000E+00
      21    -1     0     0   501   502  0.000000000E+00  0.000000000E+00 -2.048037056E+02  2.048037056E+02  0.000000000E+00  0.00000E+00  9.000E+00
      25     1     1     2     0     0 -1.425997847E+02  1.853326855E+02 -1.038964593E+01  2.653598456E+02  1.250000000E+02  0.00000E+00  9.000E+00
      25     1     1     2     0     0  1.722536052E+02  1.672254087E+01  2.602859763E+02  3.366373974E+02  1.250000000E+02  0.00000E+00  9.000E+00
      -3     1     1     2     0   502 -2.965382052E+01 -2.020552264E+02  3.338637117E+02  3.913702104E+02  6.607249480E-06  0.00000E+00  9.000E+00
#rwgt            1           1  -3.5302192693876161E-002           8      498931           0
</event>
<event>
      5   9999  3.79277E-02  7.12795E+01 -1.00000E+00  1.30824E-01
      21    -1     0     0   511   501  0.000000000E+00  0.000000000E+00  1.020381980E+03  1.020381980E+03  0.000000000E+00  0.00000E+00  9.000E+00
      21    -1     0     0   501   502  0.000000000E+00  0.000000000E+00 -5.513973538E+01  5.513973538E+01  0.000000000E+00  0.00000E+00  9.000E+00
      25     1     1     2     0     0  6.263240516E+01 -1.293633154E+02  4.518248938E+02  4.903350081E+02  1.250000000E+02  0.00000E+00  9.000E+00
      25     1     1     2     0     0 -1.211005671E+02  8.859269661E+01  2.818494416E+02  3.428966623E+02  1.250000000E+02  0.00000E+00  9.000E+00
      21     1     1     2   511   502  5.846816198E+01  4.077061874E+01  2.315679088E+02  2.422900446E+02  3.814697266E-06  0.00000E+00  9.000E+00
#rwgt            2          11   2.4428589044250054E-003           8      499478           0
</event>
<event>
      5   9999  3.79277E-02  7.72133E+01 -1.00000E+00  1.29099E-01
      21    -1     0     0   502   512  0.000000000E+00  0.000000000E+00  1.361898818E+02  1.361898818E+02  0.000000000E+00  0.00000E+00  9.000E+00
      21    -1     0     0   501   502  0.000000000E+00  0.000000000E+00 -6.465650953E+02  6.465650953E+02  0.000000000E+00  0.00000E+00  9.000E+00
      25     1     1     2     0     0  2.560395420E+02 -3.463806576E+01 -3.137396805E+02  4.252218595E+02  1.250000000E+02  0.00000E+00  9.000E+00
      25     1     1     2     0     0 -1.788279227E+02  3.514291531E+01 -1.536462294E+02  2.691590873E+02  1.250000000E+02  0.00000E+00  9.000E+00
      21     1     1     2   501   512 -7.721161927E+01 -5.048495450E-01 -4.298930353E+01  8.837403036E+01  0.000000000E+00  0.00000E+00  9.000E+00
#rwgt            2          11   3.0277190755340216E-003           8      499573           0
</event>
<event>
      5   9999  3.79277E-02  1.03551E+02 -1.00000E+00  1.23150E-01
      21    -1     0     0   502   501  0.000000000E+00  0.000000000E+00  1.681231444E+03  1.681231444E+03  0.000000000E+00  0.00000E+00  9.000E+00
      21    -1     0     0   511   502  0.000000000E+00  0.000000000E+00 -1.827530765E+02  1.827530765E+02  0.000000000E+00  0.00000E+00  9.000E+00
      25     1     1     2     0     0  1.877394865E+02  5.045885357E+01  1.543227734E+03  1.560438736E+03  1.250000000E+02  0.00000E+00  9.000E+00
      25     1     1     2     0     0 -1.352769671E+02  3.881855110E+01  5.785092549E+00  1.883220779E+02  1.250000000E+02  0.00000E+00  9.000E+00
      21     1     1     2   511   501 -5.246251944E+01 -8.927740468E+01 -5.053445913E+01  1.152237063E+02  9.536743164E-07  0.00000E+00  9.000E+00
#rwgt            1           1   5.5048874486062029E-002           8      499608           0
</event>
<event>
      5   9999  3.79277E-02  3.74052E+01 -1.00000E+00  1.46670E-01
      21    -1     0     0   502   512  0.000000000E+00  0.000000000E+00  8.305682002E+02  8.305682002E+02  0.000000000E+00  0.00000E+00  9.000E+00
      21    -1     0     0   501   502  0.000000000E+00  0.000000000E+00 -8.335132131E+01  8.335132131E+01  0.000000000E+00  0.00000E+00  9.000E+00
      25     1     1     2     0     0 -6.818064496E+01  1.498317567E+02  1.430460500E+02  2.513669192E+02  1.250000000E+02  0.00000E+00  9.000E+00
      25     1     1     2     0     0  5.959528666E+01 -1.862384018E+02  5.474146525E+02  5.945789622E+02  1.250000000E+02  0.00000E+00  9.000E+00
      21     1     1     2   501   512  8.585358298E+00  3.640664512E+01  5.675617638E+01  6.797364007E+01  1.348699152E-06  0.00000E+00  9.000E+00
#rwgt            1           1   1.9795592491364405E-002           8      499695           0
</event>
<event>
      5   9999  3.79277E-02  2.34061E+01 -1.00000E+00  1.60924E-01
      21    -1     0     0   502   511  0.000000000E+00  0.000000000E+00  3.229561254E+02  3.229561254E+02  0.000000000E+00  0.00000E+00  9.000E+00
      21    -1     0     0   501   502  0.000000000E+00  0.000000000E+00 -8.052322125E+02  8.052322125E+02  0.000000000E+00  0.00000E+00  9.000E+00
      25     1     1     2     0     0 -2.908773127E+02 -1.000211047E+02 -6.238258219E+02  7.066806128E+02  1.250000000E+02  0.00000E+00  9.000E+00
      25     1     1     2     0     0  3.134631180E+02  9.387904048E+01  8.520654644E+01  3.604962637E+02  1.250000000E+02  0.00000E+00  9.000E+00
      21     1     1     2   501   511 -2.258580532E+01  6.142064216E+00  5.634318834E+01  6.101146144E+01  0.000000000E+00  0.00000E+00  9.000E+00
#rwgt            1           1  0.13243666260236561                8      499878           0
</event>
<event>
      5   9999 -3.79277E-02  8.35713E+00 -1.00000E+00  2.05221E-01
      21    -1     0     0   502   512  0.000000000E+00  0.000000000E+00  1.231193419E+03  1.231193419E+03  0.000000000E+00  0.00000E+00  9.000E+00
      21    -1     0     0   501   502  0.000000000E+00  0.000000000E+00 -3.949964804E+01  3.949964804E+01  0.000000000E+00  0.00000E+00  9.000E+00
      25     1     1     2     0     0  1.038825231E+02 -6.904536015E+01  2.320446181E+02  2.915965451E+02  1.250000000E+02  0.00000E+00  9.000E+00
      25     1     1     2     0     0 -1.025833596E+02  6.078982625E+01  7.647945272E+02  7.840627637E+02  1.250000000E+02  0.00000E+00  9.000E+00
      21     1     1     2   501   512 -1.299163477E+00  8.255533903E+00  1.948546254E+02  1.950337579E+02  3.814697266E-06  0.00000E+00  9.000E+00
#rwgt            1           1  -3.6031603039990832E-002           8      500072           0
</event>
<event>
      5   9999 -3.79277E-02  4.08632E+01 -1.00000E+00  1.44267E-01
       2    -1     0     0   502     0  0.000000000E+00  0.000000000E+00  6.631382218E+02  6.631382218E+02  0.000000000E+00  0.00000E+00  9.000E+00
      21    -1     0     0   501   502  0.000000000E+00  0.000000000E+00 -3.716092829E+02  3.716092829E+02  0.000000000E+00  0.00000E+00  9.000E+00
      25     1     1     2     0     0  1.389354382E+02 -1.259901938E+02 -2.270977032E+02  3.199608597E+02  1.250000000E+02  0.00000E+00  9.000E+00
      25     1     1     2     0     0 -1.011365677E+02  1.415158567E+02  2.070978340E+01  2.151958135E+02  1.250000000E+02  0.00000E+00  9.000E+00
       2     1     1     2   501     0 -3.779887055E+01 -1.552566294E+01  4.979168587E+02  4.995908316E+02  5.394796609E-06  0.00000E+00  9.000E+00
#rwgt            1           1 -0.18197303198178394                8      500372           0
</event>
<event>
      5   9999  3.79277E-02  6.03153E+01 -1.00000E+00  1.34582E-01
      21    -1     0     0   502   501  0.000000000E+00  0.000000000E+00  5.760093225E+01  5.760093225E+01  0.000000000E+00  0.00000E+00  9.000E+00
       2    -1     0     0   501     0  0.000000000E+00  0.000000000E+00 -2.893612949E+03  2.893612949E+03  0.000000000E+00  0.00000E+00  9.000E+00
      25     1     1     2     0     0 -2.088992019E+02 -3.870251653E+01 -1.012138226E+03  1.041722396E+03  1.250000000E+02  0.00000E+00  9.000E+00
      25     1     1     2     0     0  2.178431524E+02 -2.094598350E+01 -3.341134206E+02  4.185106344E+02  1.250000000E+02  0.00000E+00  9.000E+00
       2     1     1     2   502     0 -8.943950443E+00  5.964850004E+01 -1.489760370E+03  1.490980851E+03  2.157918644E-05  0.00000E+00  9.000E+00
#rwgt            1           1   5.0145740586974831E-002           8      500612           0
</event>
<event>
      5   9999  3.79277E-02  7.25218E+01 -1.00000E+00  1.30447E-01
      21    -1     0     0   502   501  0.000000000E+00  0.000000000E+00  1.602102270E+02  1.602102270E+02  0.000000000E+00  0.00000E+00  9.000E+00
      21    -1     0     0   511   502  0.000000000E+00  0.000000000E+00 -3.744295505E+02  3.744295505E+02  0.000000000E+00  0.00000E+00  9.000E+00
      25     1     1     2     0     0  6.364646135E+01 -6.739109956E+01  4.233384333E+01  1.612748791E+02  1.250000000E+02  0.00000E+00  9.000E+00
      25     1     1     2     0     0 -1.361242626E+02  6.486529475E+01 -2.101282553E+02  2.872563403E+02  1.250000000E+02  0.00000E+00  9.000E+00
      21     1     1     2   511   501  7.247780128E+01  2.525804803E+00 -4.642491144E+01  8.610855806E+01  1.651812370E-06  0.00000E+00  9.000E+00
#rwgt            2          11   2.5072201024898115E-003           8      500709           0
</event>
<event>
      5   9999  3.79277E-02  7.44494E+01 -1.00000E+00  1.29879E-01
      21    -1     0     0   502   501  0.000000000E+00  0.000000000E+00  1.893555451E+02  1.893555451E+02  0.000000000E+00  0.00000E+00  9.000E+00
      -2    -1     0     0     0   502  0.000000000E+00  0.000000000E+00 -3.725536244E+02  3.725536244E+02  0.000000000E+00  0.00000E+00  9.000E+00
      25     1     1     2     0     0 -9.206425875E+01  9.535064020E+01  8.250502591E+01  1.999991291E+02  1.250000000E+02  0.00000E+00  9.000E+00
      25     1     1     2     0     0  1.145210065E+02 -2.436885696E+01 -1.861529989E+02  2.529562040E+02  1.250000000E+02  0.00000E+00  9.000E+00
      -2     1     1     2     0   501 -2.245674780E+01 -7.098178324E+01 -7.955010628E+01  1.089538365E+02  9.536743164E-07  0.00000E+00  9.000E+00
#rwgt            1           1   4.0774345286021065E-002           8      500759           0
</event>
<event>
      5   9999  3.79277E-02  5.43723E+01 -1.00000E+00  1.37030E-01
      21    -1     0     0   502   511  0.000000000E+00  0.000000000E+00  1.068777453E+03  1.068777453E+03  0.000000000E+00  0.00000E+00  9.000E+00
      21    -1     0     0   501   502  0.000000000E+00  0.000000000E+00 -4.368397309E+01  4.368397309E+01  0.000000000E+00  0.00000E+00  9.000E+00
      25     1     1     2     0     0 -8.734927567E+01 -4.353645139E+01  5.423183330E+02  5.650305238E+02  1.250000000E+02  0.00000E+00  9.000E+00
      25     1     1     2     0     0  1.348071483E+02  7.007119525E+01  3.182465724E+02  3.741507991E+02  1.250000000E+02  0.00000E+00  9.000E+00
      21     1     1     2   501   511 -4.745787267E+01 -2.653474386E+01  1.645285749E+02  1.732801035E+02  3.303624740E-06  0.00000E+00  9.000E+00
#rwgt            1           1   4.1263125789674664E-002           8      500833           0
</event>
<event>
      5   9999  3.79277E-02  9.94736E+00 -1.00000E+00  1.96022E-01
      21    -1     0     0   502   501  0.000000000E+00  0.000000000E+00  3.850146860E+02  3.850146860E+02  0.000000000E+00  0.00000E+00  9.000E+00
      21    -1     0     0   501   512  0.000000000E+00  0.000000000E+00 -1.307453560E+02  1.307453560E+02  0.000000000E+00  0.00000E+00  9.000E+00
      25     1     1     2     0     0  5.220650382E+01 -1.291818995E+02  6.845937801E+00  1.873108354E+02  1.250000000E+02  0.00000E+00  9.000E+00
      25     1     1     2     0     0 -4.427181426E+01  1.351811184E+02  2.537804486E+02  3.166440343E+02  1.250000000E+02  0.00000E+00  9.000E+00
      21     1     1     2   502   512 -7.934689559E+00 -5.999218882E+00 -6.357056527E+00  1.180517231E+01  0.000000000E+00  0.00000E+00  9.000E+00
#rwgt            1           1   4.0233865649807639E-002           8      500915           0
</event>
<event>
      5   9999  3.79277E-02  2.85056E+01 -1.00000E+00  1.54597E-01
      21    -1     0     0   502   501  0.000000000E+00  0.000000000E+00  3.467701795E+02  3.467701795E+02  0.000000000E+00  0.00000E+00  9.000E+00
      21    -1     0     0   511   502  0.000000000E+00  0.000000000E+00 -1.031509642E+02  1.031509642E+02  0.000000000E+00  0.00000E+00  9.000E+00
      25     1     1     2     0     0  7.711882277E+01 -5.893751830E+01  5.581831440E+01  1.678142667E+02  1.250000000E+02  0.00000E+00  9.000E+00
      25     1     1     2     0     0 -9.631079231E+01  8.001441266E+01  1.803483033E+02  2.526431979E+02  1.250000000E+02  0.00000E+00  9.000E+00
      21     1     1     2   511   501  1.919196954E+01 -2.107689436E+01  7.452597675E+00  2.946367905E+01  1.192092896E-07  0.00000E+00  9.000E+00
#rwgt            1           1   4.2300276194982701E-002           8      501598           0
</event>
<event>
      5   9999  3.79277E-02  6.32304E+01 -1.00000E+00  1.33498E-01
      21    -1     0     0   502   501  0.000000000E+00  0.000000000E+00  4.386290550E+02  4.386290550E+02  0.000000000E+00  0.00000E+00  9.000E+00
      21    -1     0     0   501   512  0.000000000E+00  0.000000000E+00 -1.148385262E+02  1.148385262E+02  0.000000000E+00  0.00000E+00  9.000E+00
      25     1     1     2     0     0  8.009361259E+01  2.632994099E+01  1.886119031E+02  2.414698792E+02  1.250000000E+02  0.00000E+00  9.000E+00
      25     1     1     2     0     0 -1.391202906E+02 -4.900012491E+01  1.527173738E+02  2.463799175E+02  1.250000000E+02  0.00000E+00  9.000E+00
      21     1     1     2   502   512  5.902667800E+01  2.267018392E+01 -1.753874808E+01  6.561778447E+01  4.768371582E-07  0.00000E+00  9.000E+00
#rwgt            1           1   2.6578431842177914E-002           8      501735           0
</event>
<event>
      5   9999  3.79277E-02  3.45748E+01 -1.00000E+00  1.48878E-01
      21    -1     0     0   502   501  0.000000000E+00  0.000000000E+00  7.592483421E+02  7.592483421E+02  0.000000000E+00  0.00000E+00  9.000E+00
      21    -1     0     0   501   511  0.000000000E+00  0.000000000E+00 -6.078240964E+01  6.078240964E+01  0.000000000E+00  0.00000E+00  9.000E+00
      25     1     1     2     0     0  9.288448009E+01  4.938939149E+01  4.719855144E+02  4.994618749E+02  1.250000000E+02  0.00000E+00  9.000E+00
      25     1     1     2     0     0 -1.104092533E+02 -7.919372948E+01  2.166016521E+02  2.846104807E+02  1.250000000E+02  0.00000E+00  9.000E+00
      21     1     1     2   502   511  1.752477324E+01  2.980433799E+01  9.878765941E+00  3.595839619E+01  4.768371582E-07  0.00000E+00  9.000E+00
#rwgt            1           1   3.7951735438090925E-002           8      502047           0
</event>
<event>
      5   9999  3.79277E-02  4.78145E+01 -1.00000E+00  1.40192E-01
      21    -1     0     0   502   501  0.000000000E+00  0.000000000E+00  4.001291799E+01  4.001291799E+01  0.000000000E+00  0.00000E+00  9.000E+00
      21    -1     0     0   512   502  0.000000000E+00  0.000000000E+00 -1.609206833E+03  1.609206833E+03  0.000000000E+00  0.00000E+00  9.000E+00
      25     1     1     2     0     0  4.557659777E+01 -4.350541983E+01 -5.850187224E+02  6.015329196E+02  1.250000000E+02  0.00000E+00  9.000E+00
      25     1     1     2     0     0 -2.471756335E+01  8.653015503E+01 -1.598667563E+02  2.219928049E+02  1.250000000E+02  0.00000E+00  9.000E+00
      21     1     1     2   512   501 -2.085903442E+01 -4.302473520E+01 -8.243084361E+02  8.256940262E+02  1.078959322E-05  0.00000E+00  9.000E+00
#rwgt            1           1   3.5795636202095062E-002           8      502155           0
</event>
<event>
      5   9999  3.79277E-02  1.46512E+02 -1.00000E+00  1.16800E-01
      21    -1     0     0   502   511  0.000000000E+00  0.000000000E+00  1.297783261E+03  1.297783261E+03  0.000000000E+00  0.00000E+00  9.000E+00
      21    -1     0     0   501   502  0.000000000E+00  0.000000000E+00 -9.359288923E+01  9.359288923E+01  0.000000000E+00  0.00000E+00  9.000E+00
      25     1     1     2     0     0 -1.361816618E+02 -4.395294589E+01  7.248568816E+01  2.033629304E+02  1.250000000E+02  0.00000E+00  9.000E+00
      25     1     1     2     0     0 -8.448538696E+00  6.736224223E+01  2.033227578E+02  2.481414785E+02  1.250000000E+02  0.00000E+00  9.000E+00
      21     1     1     2   501   511  1.446302005E+02 -2.340929634E+01  9.283819255E+02  9.398717411E+02  1.078959322E-05  0.00000E+00  9.000E+00
#rwgt            1           1   4.4466569875124103E-002           8      502297           0
</event>
<event>
      5   9999  3.79277E-02  1.20943E+01 -1.00000E+00  1.86671E-01
      21    -1     0     0   502   501  0.000000000E+00  0.000000000E+00  4.939207822E+02  4.939207822E+02  0.000000000E+00  0.00000E+00  9.000E+00
      21    -1     0     0   512   502  0.000000000E+00  0.000000000E+00 -1.120624550E+02  1.120624550E+02  0.000000000E+00  0.00000E+00  9.000E+00
      25     1     1     2     0     0  4.291843540E+01 -1.502632121E+02  5.226153922E+01  2.068267233E+02  1.250000000E+02  0.00000E+00  9.000E+00
      25     1     1     2     0     0 -5.299004485E+01  1.435673453E+02  3.324413722E+02  3.867321987E+02  1.250000000E+02  0.00000E+00  9.000E+00
      21     1     1     2   512   501  1.007160945E+01  6.695866743E+00 -2.844584312E+00  1.242431520E+01  2.064765462E-07  0.00000E+00  9.000E+00
#rwgt            1           1   3.7319958516346320E-002           8      502368           0
</event>
<event>
      5   9999  3.79277E-02  1.36180E+01 -1.00000E+00  1.81432E-01
      21    -1     0     0   511   501  0.000000000E+00  0.000000000E+00  1.245480440E+03  1.245480440E+03  0.000000000E+00  0.00000E+00  9.000E+00
      21    -1     0     0   501   502  0.000000000E+00  0.000000000E+00 -6.537057241E+01  6.537057241E+01  0.000000000E+00  0.00000E+00  9.000E+00
      25     1     1     2     0     0 -1.791158286E+01 -7.836587470E+01  3.408840594E+01  1.524764065E+02  1.250000000E+02  0.00000E+00  9.000E+00
      25     1     1     2     0     0  5.957408455E+00  8.488867362E+01  1.101080554E+03  1.111415748E+03  1.250000000E+02  0.00000E+00  9.000E+00
      21     1     1     2   511   502  1.195417441E+01 -6.522798912E+00  4.494090711E+01  4.695885777E+01  9.536743164E-07  0.00000E+00  9.000E+00
#rwgt            1           1   2.9037752234980160E-002           8      502536           0
</event>
<event>
      5   9999  3.79277E-02  1.90823E+02 -1.00000E+00  1.12396E-01
      21    -1     0     0   502   501  0.000000000E+00  0.000000000E+00  1.904667754E+02  1.904667754E+02  0.000000000E+00  0.00000E+00  9.000E+00
       2    -1     0     0   501     0  0.000000000E+00  0.000000000E+00 -2.082844398E+03  2.082844398E+03  0.000000000E+00  0.00000E+00  9.000E+00
      25     1     1     2     0     0 -2.071247882E+02 -4.969036969E+01  9.082272540E+01  2.631417454E+02  1.250000000E+02  0.00000E+00  9.000E+00
      25     1     1     2     0     0  2.023355770E+01  1.115537608E+01 -5.608178507E+02  5.750439121E+02  1.250000000E+02  0.00000E+00  9.000E+00
       2     1     1     2   502     0  1.868912305E+02  3.853499361E+01 -1.422382498E+03  1.435125516E+03  2.157918644E-05  0.00000E+00  9.000E+00
#rwgt            1           1   4.2561346232039179E-002           8      502791           0
</event>
<event>
      5   9999  3.79277E-02  3.84606E+01 -1.00000E+00  1.45905E-01
      21    -1     0     0   502   501  0.000000000E+00  0.000000000E+00  3.085804342E+02  3.085804342E+02  0.000000000E+00  0.00000E+00  9.000E+00
      21    -1     0     0   511   502  0.000000000E+00  0.000000000E+00 -2.608197693E+02  2.608197693E+02  0.000000000E+00  0.00000E+00  9.000E+00
      25     1     1     2     0     0 -1.213857068E+02  1.767252286E+02 -5.110618099E+00  2.482285533E+02  1.250000000E+02  0.00000E+00  9.000E+00
      25     1     1     2     0     0  1.116126717E+02 -2.139233855E+02  6.753292136E+01  2.800112477E+02  1.250000000E+02  0.00000E+00  9.000E+00
      21     1     1     2   511   501  9.773035132E+00  3.719815692E+01 -1.466163841E+01  4.116040251E+01  5.057621821E-07  0.00000E+00  9.000E+00
#rwgt            1           1   4.4064616341412649E-002           8      502843           0
</event>
<event>
      5   9999  3.79277E-02  1.38574E+01 -1.00000E+00  1.80688E-01
      21    -1     0     0   502   501  0.000000000E+00  0.000000000E+00  1.458152479E+02  1.458152479E+02  0.000000000E+00  0.00000E+00  9.000E+00
      21    -1     0     0   501   512  0.000000000E+00  0.000000000E+00 -5.913738193E+02  5.913738193E+02  0.000000000E+00  0.00000E+00  9.000E+00
      25     1     1     2     0     0 -2.492885552E+02  8.774066285E+00 -2.398586647E+02  3.679387816E+02  1.250000000E+02  0.00000E+00  9.000E+00
      25     1     1     2     0     0  2.603111182E+02 -1.717240066E+01 -1.819159653E+02  3.417238476E+02  1.250000000E+02  0.00000E+00  9.000E+00
      21     1     1     2   502   512 -1.102256302E+01  8.398334371E+00 -2.378394143E+01  2.752643794E+01  0.000000000E+00  0.00000E+00  9.000E+00
#rwgt            1           1   3.8382229474510199E-002           8      503193           0
</event>
<event>
      5   9999  3.79277E-02  1.92578E+01 -1.00000E+00  1.67736E-01
      21    -1     0     0   502   501  0.000000000E+00  0.000000000E+00  5.626738079E+02  5.626738079E+02  0.000000000E+00  0.00000E+00  9.000E+00
      -1    -1     0     0     0   502  0.000000000E+00  0.000000000E+00 -2.906477196E+02  2.906477196E+02  0.000000000E+00  0.00000E+00  9.000E+00
      25     1     1     2     0     0  9.747382791E+01  1.971927097E+02  1.410829396E+02  2.896817352E+02  1.250000000E+02  0.00000E+00  9.000E+00
      25     1     1     2     0     0 -1.006273926E+02 -1.781948412E+02  3.053032253E+02  3.882194392E+02  1.250000000E+02  0.00000E+00  9.000E+00
      -1     1     1     2     0   501  3.153564721E+00 -1.899786844E+01 -1.743600766E+02  1.754203531E+02  1.907348633E-06  0.00000E+00  9.000E+00
#rwgt            1           1   3.8956733901918172E-002           8      503469           0
</event>
<event>
      5   9999  3.79277E-02  4.63092E+01 -1.00000E+00  1.41003E-01
      21    -1     0     0   502   501  0.000000000E+00  0.000000000E+00  1.486763268E+02  1.486763268E+02  0.000000000E+00  0.00000E+00  9.000E+00
      21    -1     0     0   511   502  0.000000000E+00  0.000000000E+00 -4.089962333E+02  4.089962333E+02  0.000000000E+00  0.00000E+00  9.000E+00
      25     1     1     2     0     0 -1.494219152E+02 -2.922561749E+01 -3.500922951E+01  2.000792133E+02  1.250000000E+02  0.00000E+00  9.000E+00
      25     1     1     2     0     0  1.857918951E+02  5.789210638E+01 -1.843969009E+02  2.957994951E+02  1.250000000E+02  0.00000E+00  9.000E+00
      21     1     1     2   511   501 -3.636997988E+01 -2.866648889E+01 -4.091377608E+01  6.179385160E+01  4.768371582E-07  0.00000E+00  9.000E+00
#rwgt            1           1   3.5802705482856627E-002           8      503677           0
</event>
</LesHouchesEvents>
 #Random number generator exit values:            8        503744             0
