<LesHouchesEvents version="3.0">
<!--
file generated with POWHEG-BOX-V2
Input file powheg.input contained:
! ggHH production parameters:
mtdep 2              ! 0: Higgs effective field theory (HEFT)

hmass 125            ! Higgs boson mass
topmass 173          ! top quark mass (THIS VALUE IS HARD CODED IN THE VIRTUAL
hdecaymode -1        ! PDG code for Higgs boson decay products (it affects only the SMC)
!                      allowed values are:
!                      0 all decay channels open
!                      1-6 d dbar, u ubar,..., t tbar (as in HERWIG)
!                      7-9 e+ e-, mu+ mu-, tau+ tau-
!                      10  W+W-
!                      11  ZZ
!                      12  gamma gamma
!                      -1  all decay channels closed

! general parameters:
numevts  3000        ! number of events to be generated
ih1         1        ! hadron 1 (1 for protons, -1 for antiprotons)
ih2         1        ! hadron 2 (1 for protons, -1 for antiprotons)
ebeam1 7000d0        ! energy of beam 1
ebeam2 7000d0        ! energy of beam 2
! To be set only if using LHA pdfs
lhans1 90200         ! pdf set for hadron 1 (LHA numbering)
lhans2 90200 	     ! pdf set for hadron 2 (LHA numbering)
! To be set only if using internal mlm pdf
# ndns1 131          ! pdf set for hadron 1 (mlm numbering)
# ndns2 131          ! pdf set for hadron 2 (mlm numbering)
! To be set only if using different pdf sets for the two incoming hadrons
! QCDLambda5 0.25    ! for not equal pdf sets

! Parameters to allow or not the use of stored data
use-old-grid    1    ! if 1 use old grid if file pwggrids.dat is present (<> 1 regenerate)
use-old-ubound  1    ! if 1 use norm of upper bounding function stored in pwgubound.dat, if present;
!
ncall1  10000        ! number of calls for initializing the integration grid
itmx1       3        ! number of iterations for initializing the integration grid
ncall2  10000        ! number of calls for computing the integral and finding upper bound
itmx2       3        ! number of iterations for computing the integral and finding upper bound
foldcsi     1        ! number of folds on csi integration
foldy       1        ! number of folds on  y  integration
foldphi     1        ! number of folds on phi integration
nubound 10000        ! number of bbarra calls to setup norm of upper bounding function
# icsimax   1        ! <= 100, number of csi subdivision when computing the upper bounds
# iymax     1        ! <= 100, number of y subdivision when computing the upper bounds
# xupbound 2d0       ! increase upper bound for radiation generation

! OPTIONAL PARAMETERS

! scale settings:
#fixedscale   1      ! (dafault 0) Use muren = mufac = 2*m_H
facscfact   1d0      ! (default 1d0) fac scale factor: mufact = muref * facscfact
renscfact   1d0      ! (default 1d0) ren scale factor: muren  = muref * renscfact

! Born, plots and powheg strategy:
#bornonly         1  ! (default 0) if 1 do Born only
# testplots 1
fastbtlbound      1  ! fast evaluation of Btilde upper bounds
storemintupb      1  ! store function calls in binary file for more precise generation
ubexcess_correct  1  ! corrects for error in upper bound estimate
storeinfo_rwgt    1  ! store info to allow for reweighting
softtest          0  ! no check of the soft limit in the real
colltest          0  ! no check of the collinear limit in the real

! PARAMETERS needed for ggHH
hdamp           250

! PARAMETERS for parallel runnning
! -- non parallel (for testing purposes only)
#iseed    547        !  Start the random number generator with seed iseed
#rand1     0         !  skipping  rand2*100000000+rand1 numbers.
#rand2     0         !  (see RM48 short writeup in CERNLIB)

! -- parallel
manyseeds 1          ! Used to perform multiple runs with different random
                     ! seeds in the same directory.
                     ! If set to 1, the program asks for an integer j;
                     ! The file pwgseeds.dat at line j is read, and the
                     ! integer at line j is used to initialize the random
                     ! sequence for the generation of the event.
                     ! The event file is called pwgevents-'j'.lhe
parallelstage 4
xgriditeration 1
maxseeds    1000

! PARAMETERS for reweighting
#rwl_file 'reweight_setup.xml'


! PARAMETERS for Pythia8
#py8tune  xxx
#py8hepmc 1
#py8nohad 1
#py8nompi 1
End of powheg.input content
PDF package: lha
 Random number generator initialized with:            5             0             0
-->
<init>
     2212     2212  7.00000E+03  7.00000E+03     -1     -1     -1     -1     -4      1
  3.38081E-02  5.61572E-05  1.00000E+00   9999
</init>
<event>
      5   9999  3.79277E-02  6.83147E+01 -1.00000E+00  1.31759E-01
      21    -1     0     0   502   501  0.000000000E+00  0.000000000E+00  5.005538085E+01  5.005538085E+01  0.000000000E+00  0.00000E+00  9.000E+00
      21    -1     0     0   511   502  0.000000000E+00  0.000000000E+00 -1.972154489E+03  1.972154489E+03  0.000000000E+00  0.00000E+00  9.000E+00
      25     1     1     2     0     0 -2.040604281E+02  5.045323218E+01 -4.254644990E+02  4.907455826E+02  1.250000000E+02  0.00000E+00  9.000E+00
      25     1     1     2     0     0  1.899330981E+02 -1.172911872E+02 -1.141714955E+03  1.170029847E+03  1.250000000E+02  0.00000E+00  9.000E+00
      21     1     1     2   511   501  1.412733000E+01  6.683795504E+01 -3.549196540E+02  3.614344401E+02  3.814697266E-06  0.00000E+00  9.000E+00
#rwgt            1           1   5.4598003861523400E-002           5           1           0
</event>
<event>
      5   9999  3.79277E-02  2.10529E+02 -1.00000E+00  1.10843E-01
       1    -1     0     0   502     0  0.000000000E+00  0.000000000E+00  6.267406729E+02  6.267406729E+02  0.000000000E+00  0.00000E+00  9.000E+00
      21    -1     0     0   501   502  0.000000000E+00  0.000000000E+00 -4.116783327E+02  4.116783327E+02  0.000000000E+00  0.00000E+00  9.000E+00
      25     1     1     2     0     0  1.283876273E+02  1.206529167E+02 -3.277967979E+02  3.925764255E+02  1.250000000E+02  0.00000E+00  9.000E+00
      25     1     1     2     0     0  5.631187791E+01 -1.961514273E+01  2.377869778E+02  2.751789022E+02  1.250000000E+02  0.00000E+00  9.000E+00
       1     1     1     2   501     0 -1.846995052E+02 -1.010377740E+02  3.050721604E+02  3.706636779E+02  0.000000000E+00  0.00000E+00  9.000E+00
#rwgt            1           1   2.1891482709748073E-002           5         131           0
</event>
<event>
      5   9999  3.79277E-02  9.54984E+01 -1.00000E+00  1.24734E-01
      -2    -1     0     0     0   501  0.000000000E+00  0.000000000E+00  1.041874105E+03  1.041874105E+03  0.000000000E+00  0.00000E+00  9.000E+00
      21    -1     0     0   501   502  0.000000000E+00  0.000000000E+00 -8.326329781E+01  8.326329781E+01  0.000000000E+00  0.00000E+00  9.000E+00
      25     1     1     2     0     0 -8.814001177E+01  7.511927775E+01  4.521332430E+02  4.831780593E+02  1.250000000E+02  0.00000E+00  9.000E+00
      25     1     1     2     0     0  1.362279187E+02  7.388333515E+00  7.436299703E+01  1.994178744E+02  1.250000000E+02  0.00000E+00  9.000E+00
      -2     1     1     2     0   502 -4.808790695E+01 -8.250761127E+01  4.321145672E+02  4.425414692E+02  0.000000000E+00  0.00000E+00  9.000E+00
#rwgt            1           1   4.3947620165029740E-002           5         268           0
</event>
<event>
      5   9999  3.79277E-02  6.04838E+01 -1.00000E+00  1.34517E-01
      21    -1     0     0   511   501  0.000000000E+00  0.000000000E+00  5.942529370E+02  5.942529370E+02  0.000000000E+00  0.00000E+00  9.000E+00
      21    -1     0     0   501   502  0.000000000E+00  0.000000000E+00 -1.438912422E+02  1.438912422E+02  0.000000000E+00  0.00000E+00  9.000E+00
      25     1     1     2     0     0 -1.226671258E+01 -8.243852288E+01  2.505087843E+02  2.921065444E+02  1.250000000E+02  0.00000E+00  9.000E+00
      25     1     1     2     0     0 -4.821637409E+01  8.215199444E+01 -6.814698079E+01  1.712973436E+02  1.250000000E+02  0.00000E+00  9.000E+00
      21     1     1     2   511   502  6.048308667E+01  2.865284321E-01  2.679998913E+02  2.747402912E+02  0.000000000E+00  0.00000E+00  9.000E+00
#rwgt            1           1   4.1512260124803323E-002           5         441           0
</event>
<event>
      5   9999  3.79277E-02  6.04723E+01 -1.00000E+00  1.34522E-01
      21    -1     0     0   502   501  0.000000000E+00  0.000000000E+00  8.919376514E+01  8.919376514E+01  0.000000000E+00  0.00000E+00  9.000E+00
      21    -1     0     0   512   502  0.000000000E+00  0.000000000E+00 -7.539072468E+02  7.539072468E+02  0.000000000E+00  0.00000E+00  9.000E+00
      25     1     1     2     0     0  1.061953432E+02  6.545010178E+01 -6.341180537E+01  1.876358809E+02  1.250000000E+02  0.00000E+00  9.000E+00
      25     1     1     2     0     0 -9.466743264E+01 -1.248134180E+02 -4.585831359E+02  5.004635897E+02  1.250000000E+02  0.00000E+00  9.000E+00
      21     1     1     2   512   501 -1.152791060E+01  5.936331620E+01 -1.427185405E+02  1.550015414E+02  3.814697266E-06  0.00000E+00  9.000E+00
#rwgt            1           1   3.3227399852502122E-002           5         535           0
</event>
<event>
      5   9999  3.79277E-02  3.75223E+01 -1.00000E+00  1.46584E-01
      21    -1     0     0   502   501  0.000000000E+00  0.000000000E+00  6.953144013E+02  6.953144013E+02  0.000000000E+00  0.00000E+00  9.000E+00
      21    -1     0     0   501   511  0.000000000E+00  0.000000000E+00 -1.413919790E+02  1.413919790E+02  0.000000000E+00  0.00000E+00  9.000E+00
      25     1     1     2     0     0  2.019360856E+01 -1.666114062E+02  1.361755998E+02  2.496716573E+02  1.250000000E+02  0.00000E+00  9.000E+00
      25     1     1     2     0     0  9.761076710E+00  1.440140761E+02  4.787452403E+02  5.154195746E+02  1.250000000E+02  0.00000E+00  9.000E+00
      21     1     1     2   502   511 -2.995468527E+01  2.259733013E+01 -6.099841781E+01  7.161514835E+01  1.907348633E-06  0.00000E+00  9.000E+00
#rwgt            1           1   4.0380821726364903E-002           5         643           0
</event>
<event>
      5   9999  3.79277E-02  1.06283E+02 -1.00000E+00  1.22649E-01
      21    -1     0     0   512   501  0.000000000E+00  0.000000000E+00  1.968529730E+03  1.968529730E+03  0.000000000E+00  0.00000E+00  9.000E+00
      21    -1     0     0   501   502  0.000000000E+00  0.000000000E+00 -6.160595688E+01  6.160595688E+01  0.000000000E+00  0.00000E+00  9.000E+00
      25     1     1     2     0     0  1.466395859E+02  2.845793009E+01  1.438276728E+02  2.421248055E+02  1.250000000E+02  0.00000E+00  9.000E+00
      25     1     1     2     0     0 -4.959151122E+01 -7.178983155E+01  5.647905862E+02  5.850012856E+02  1.250000000E+02  0.00000E+00  9.000E+00
      21     1     1     2   512   502 -9.704807473E+01  4.333190146E+01  1.198305514E+03  1.203009595E+03  1.525878906E-05  0.00000E+00  9.000E+00
#rwgt            1           1   4.5460862396925254E-002           5         765           0
</event>
<event>
      5   9999  3.79277E-02  4.85846E+01 -1.00000E+00  1.39791E-01
      21    -1     0     0   502   511  0.000000000E+00  0.000000000E+00  3.000396005E+02  3.000396005E+02  0.000000000E+00  0.00000E+00  9.000E+00
      21    -1     0     0   501   502  0.000000000E+00  0.000000000E+00 -2.263109309E+02  2.263109309E+02  0.000000000E+00  0.00000E+00  9.000E+00
      25     1     1     2     0     0  1.328181501E+02  6.591550319E+01  1.421966861E+02  2.404795461E+02  1.250000000E+02  0.00000E+00  9.000E+00
      25     1     1     2     0     0 -9.344514708E+01 -3.745097626E+01 -1.306553417E+02  2.069550421E+02  1.250000000E+02  0.00000E+00  9.000E+00
      21     1     1     2   501   511 -3.937300306E+01 -2.846452693E+01  6.218732528E+01  7.891594319E+01  1.784161275E-06  0.00000E+00  9.000E+00
#rwgt            1           1   2.8499189858903422E-002           5         819           0
</event>
<event>
      5   9999  3.79277E-02  2.91326E+01 -1.00000E+00  1.53930E-01
      21    -1     0     0   502   501  0.000000000E+00  0.000000000E+00  2.888070882E+02  2.888070882E+02  0.000000000E+00  0.00000E+00  9.000E+00
      -3    -1     0     0     0   502  0.000000000E+00  0.000000000E+00 -2.309372339E+02  2.309372339E+02  0.000000000E+00  0.00000E+00  9.000E+00
      25     1     1     2     0     0 -9.540626224E+01  9.033017402E+01  1.324120956E+02  2.245436667E+02  1.250000000E+02  0.00000E+00  9.000E+00
      25     1     1     2     0     0  1.113222341E+02 -6.592958280E+01  3.376642277E+01  1.830424022E+02  1.250000000E+02  0.00000E+00  9.000E+00
      -3     1     1     2     0   501 -1.591597190E+01 -2.440059122E+01 -1.083086642E+02  1.121582531E+02  0.000000000E+00  0.00000E+00  9.000E+00
#rwgt            1           1   3.6844758920963505E-002           5         966           0
</event>
<event>
      5   9999  3.79277E-02  1.49322E+01 -1.00000E+00  1.77569E-01
      21    -1     0     0   502   511  0.000000000E+00  0.000000000E+00  1.785486480E+02  1.785486480E+02  0.000000000E+00  0.00000E+00  9.000E+00
      21    -1     0     0   501   502  0.000000000E+00  0.000000000E+00 -2.482346891E+02  2.482346891E+02  0.000000000E+00  0.00000E+00  9.000E+00
      25     1     1     2     0     0  4.857954582E+01  9.344287745E+01 -1.547874963E+02  2.251126665E+02  1.250000000E+02  0.00000E+00  9.000E+00
      25     1     1     2     0     0 -3.455934050E+01 -8.830423685E+01  5.188878621E+01  1.652556577E+02  1.250000000E+02  0.00000E+00  9.000E+00
      21     1     1     2   501   511 -1.402020532E+01 -5.138640598E+00  3.321266894E+01  3.641501288E+01  4.768371582E-07  0.00000E+00  9.000E+00
#rwgt            1           1   3.0799387795868365E-002           5        1105           0
</event>
<event>
      5   9999  3.79277E-02  9.45673E+01 -1.00000E+00  1.24929E-01
      21    -1     0     0   502   512  0.000000000E+00  0.000000000E+00  2.695046879E+02  2.695046879E+02  0.000000000E+00  0.00000E+00  9.000E+00
      21    -1     0     0   501   502  0.000000000E+00  0.000000000E+00 -4.581072764E+02  4.581072764E+02  0.000000000E+00  0.00000E+00  9.000E+00
      25     1     1     2     0     0  3.774272351E+01 -9.928391644E+01 -1.031772030E+02  1.937842730E+02  1.250000000E+02  0.00000E+00  9.000E+00
      25     1     1     2     0     0 -2.762977725E+01  1.933088994E+02 -2.519050822E+02  3.423637037E+02  1.250000000E+02  0.00000E+00  9.000E+00
      21     1     1     2   501   512 -1.011294627E+01 -9.402498299E+01  1.664796967E+02  1.914639876E+02  3.303624740E-06  0.00000E+00  9.000E+00
#rwgt            1           1   4.0948639912701153E-002           5        1281           0
</event>
<event>
      5   9999  3.79277E-02  4.81224E+01 -1.00000E+00  1.40031E-01
      21    -1     0     0   502   501  0.000000000E+00  0.000000000E+00  1.791984746E+02  1.791984746E+02  0.000000000E+00  0.00000E+00  9.000E+00
      21    -1     0     0   501   511  0.000000000E+00  0.000000000E+00 -5.752106209E+02  5.752106209E+02  0.000000000E+00  0.00000E+00  9.000E+00
      25     1     1     2     0     0 -1.701440127E+02 -2.956744508E+01 -4.311225538E+02  4.809520509E+02  1.250000000E+02  0.00000E+00  9.000E+00
      25     1     1     2     0     0  1.372398327E+02 -5.547774504E+00  8.490928342E+01  2.042061113E+02  1.250000000E+02  0.00000E+00  9.000E+00
      21     1     1     2   502   511  3.290418001E+01  3.511521958E+01 -4.979887598E+01  6.925093326E+01  0.000000000E+00  0.00000E+00  9.000E+00
#rwgt            1           1   2.7878712141286874E-002           5        1459           0
</event>
<event>
      5   9999  3.79277E-02  1.75193E+02 -1.00000E+00  1.13783E-01
      21    -1     0     0   502   501  0.000000000E+00  0.000000000E+00  2.784093969E+02  2.784093969E+02  0.000000000E+00  0.00000E+00  9.000E+00
      21    -1     0     0   501   512  0.000000000E+00  0.000000000E+00 -3.007717230E+02  3.007717230E+02  0.000000000E+00  0.00000E+00  9.000E+00
      25     1     1     2     0     0 -1.411402299E+02  7.639994724E+01  1.090471059E+02  2.308111517E+02  1.250000000E+02  0.00000E+00  9.000E+00
      25     1     1     2     0     0  3.483801359E+01  6.285647431E+01 -3.488458645E+01  1.483460749E+02  1.250000000E+02  0.00000E+00  9.000E+00
      21     1     1     2   502   512  1.063022163E+02 -1.392564215E+02 -9.652484555E+01  2.000238934E+02  4.046097457E-06  0.00000E+00  9.000E+00
#rwgt            1           1   2.9998760041131597E-002           5        1595           0
</event>
<event>
      5   9999  3.79277E-02  1.79360E+01 -1.00000E+00  1.70369E-01
      21    -1     0     0   511   501  0.000000000E+00  0.000000000E+00  2.057759112E+02  2.057759112E+02  0.000000000E+00  0.00000E+00  9.000E+00
      21    -1     0     0   501   502  0.000000000E+00  0.000000000E+00 -4.455133723E+02  4.455133723E+02  0.000000000E+00  0.00000E+00  9.000E+00
      25     1     1     2     0     0 -1.348044487E+02 -2.229636101E+02 -1.537015678E+02  3.273135847E+02  1.250000000E+02  0.00000E+00  9.000E+00
      25     1     1     2     0     0  1.168770619E+02  2.224082128E+02 -1.033448075E+02  2.990498453E+02  1.250000000E+02  0.00000E+00  9.000E+00
      21     1     1     2   511   502  1.792738682E+01  5.553972939E-01  1.730891427E+01  2.492585360E+01  0.000000000E+00  0.00000E+00  9.000E+00
#rwgt            1           1  0.17037792128549414                5        1665           0
</event>
<event>
      5   9999  3.79277E-02  1.56609E+01 -1.00000E+00  1.75638E-01
      21    -1     0     0   512   501  0.000000000E+00  0.000000000E+00  4.497937415E+02  4.497937415E+02  0.000000000E+00  0.00000E+00  9.000E+00
      21    -1     0     0   501   502  0.000000000E+00  0.000000000E+00 -1.239739122E+02  1.239739122E+02  0.000000000E+00  0.00000E+00  9.000E+00
      25     1     1     2     0     0  1.930934875E+01  3.851894685E+01 -7.100002989E+01  1.500751960E+02  1.250000000E+02  0.00000E+00  9.000E+00
      25     1     1     2     0     0 -1.902264980E+01 -2.286070186E+01  3.778169109E+02  3.990677775E+02  1.250000000E+02  0.00000E+00  9.000E+00
      21     1     1     2   512   502 -2.866989450E-01 -1.565824499E+01  1.900294828E+01  2.462468022E+01  4.129530925E-07  0.00000E+00  9.000E+00
#rwgt            1           1   3.1915866151299370E-002           5        1857           0
</event>
<event>
      5   9999  3.79277E-02  3.11066E+01 -1.00000E+00  1.51955E-01
      21    -1     0     0   502   501  0.000000000E+00  0.000000000E+00  1.593810679E+02  1.593810679E+02  0.000000000E+00  0.00000E+00  9.000E+00
       2    -1     0     0   501     0  0.000000000E+00  0.000000000E+00 -6.033417903E+02  6.033417903E+02  0.000000000E+00  0.00000E+00  9.000E+00
      25     1     1     2     0     0  7.728437115E+01 -8.541950623E+01 -2.255678382E+02  2.824450667E+02  1.250000000E+02  0.00000E+00  9.000E+00
      25     1     1     2     0     0 -1.045242633E+02  7.039913974E+01  6.956447237E+01  1.906451581E+02  1.250000000E+02  0.00000E+00  9.000E+00
       2     1     1     2   502     0  2.723989214E+01  1.502036649E+01 -2.879573566E+02  2.896326334E+02  0.000000000E+00  0.00000E+00  9.000E+00
#rwgt            1           1   3.8542251237800994E-002           5        2061           0
</event>
<event>
      5   9999  3.79277E-02  1.79549E+01 -1.00000E+00  1.70329E-01
      21    -1     0     0   502   511  0.000000000E+00  0.000000000E+00  2.660236730E+02  2.660236730E+02  0.000000000E+00  0.00000E+00  9.000E+00
      21    -1     0     0   501   502  0.000000000E+00  0.000000000E+00 -2.513531022E+02  2.513531022E+02  0.000000000E+00  0.00000E+00  9.000E+00
      25     1     1     2     0     0 -1.416950670E+02  1.265748560E+02 -6.904320668E+01  2.376776190E+02  1.250000000E+02  0.00000E+00  9.000E+00
      25     1     1     2     0     0  1.298371555E+02 -1.130926926E+02  2.023931621E+01  2.137341199E+02  1.250000000E+02  0.00000E+00  9.000E+00
      21     1     1     2   501   511  1.185791153E+01 -1.348216332E+01  6.347446127E+01  6.596503640E+01  1.168007728E-06  0.00000E+00  9.000E+00
#rwgt            1           1   4.0123367020988780E-002           5        2192           0
</event>
<event>
      5   9999  3.79277E-02  1.10650E+01 -1.00000E+00  1.90810E-01
      21    -1     0     0   502   501  0.000000000E+00  0.000000000E+00  5.630123455E+02  5.630123455E+02  0.000000000E+00  0.00000E+00  9.000E+00
      21    -1     0     0   501   512  0.000000000E+00  0.000000000E+00 -1.215332657E+02  1.215332657E+02  0.000000000E+00  0.00000E+00  9.000E+00
      25     1     1     2     0     0  4.324252236E-01  1.887951141E+02  3.649158728E+02  4.294559073E+02  1.250000000E+02  0.00000E+00  9.000E+00
      25     1     1     2     0     0 -9.967819358E+00 -1.944085927E+02  6.809324477E+01  2.411550297E+02  1.250000000E+02  0.00000E+00  9.000E+00
      21     1     1     2   502   512  9.535394134E+00  5.613478619E+00  8.469962225E+00  1.393467415E+01  2.384185791E-07  0.00000E+00  9.000E+00
#rwgt            1           1   1.9388012937701527E-002           5        2345           0
</event>
<event>
      5   9999  3.79277E-02  1.07811E+02 -1.00000E+00  1.22376E-01
      21    -1     0     0   502   501  0.000000000E+00  0.000000000E+00  4.508375247E+02  4.508375247E+02  0.000000000E+00  0.00000E+00  9.000E+00
      21    -1     0     0   511   502  0.000000000E+00  0.000000000E+00 -1.381042943E+02  1.381042943E+02  0.000000000E+00  0.00000E+00  9.000E+00
      25     1     1     2     0     0 -2.364143461E+01 -2.748010293E+00  7.695942796E+00  1.274782198E+02  1.250000000E+02  0.00000E+00  9.000E+00
      25     1     1     2     0     0  1.308101884E+02 -9.003379033E+00  3.037219734E+02  3.536444590E+02  1.250000000E+02  0.00000E+00  9.000E+00
      21     1     1     2   511   501 -1.071687538E+02  1.175138933E+01  1.315314201E+00  1.078191402E+02  1.446948023E-06  0.00000E+00  9.000E+00
#rwgt            1           1   4.1258628734557969E-002           5        2663           0
</event>
<event>
      5   9999  3.79277E-02  3.16765E+01 -1.00000E+00  1.51418E-01
      21    -1     0     0   502   501  0.000000000E+00  0.000000000E+00  2.387776554E+02  2.387776554E+02  0.000000000E+00  0.00000E+00  9.000E+00
      21    -1     0     0   512   502  0.000000000E+00  0.000000000E+00 -3.852133594E+02  3.852133594E+02  0.000000000E+00  0.00000E+00  9.000E+00
      25     1     1     2     0     0  7.828508872E+00  3.947769429E+01  1.996700287E+02  2.389830418E+02  1.250000000E+02  0.00000E+00  9.000E+00
      25     1     1     2     0     0 -3.939048860E+01 -3.678706042E+01 -2.948150442E+02  3.247242041E+02  1.250000000E+02  0.00000E+00  9.000E+00
      21     1     1     2   512   501  3.156197973E+01 -2.690633874E+00 -5.129068849E+01  6.028376897E+01  6.743495762E-07  0.00000E+00  9.000E+00
#rwgt            1           1   3.7593295219274334E-002           5        2723           0
</event>
<event>
      5   9999 -3.79277E-02  1.36162E+02 -1.00000E+00  1.18084E-01
      21    -1     0     0   511   501  0.000000000E+00  0.000000000E+00  1.272830671E+03  1.272830671E+03  0.000000000E+00  0.00000E+00  9.000E+00
      21    -1     0     0   501   502  0.000000000E+00  0.000000000E+00 -3.452597619E+02  3.452597619E+02  0.000000000E+00  0.00000E+00  9.000E+00
      25     1     1     2     0     0  2.519415441E+02  2.026188139E+02 -1.449133624E+02  3.757044157E+02  1.250000000E+02  0.00000E+00  9.000E+00
      25     1     1     2     0     0 -3.323442745E+02 -9.273049451E+01  3.498050276E+02  5.069913399E+02  1.250000000E+02  0.00000E+00  9.000E+00
      21     1     1     2   511   502  8.040273038E+01 -1.098883194E+02  7.226792438E+02  7.353946771E+02  7.629394531E-06  0.00000E+00  9.000E+00
#rwgt            1           1 -0.22682257132801045                5        2907           0
</event>
<event>
      5   9999  3.79277E-02  8.20259E+01 -1.00000E+00  1.27826E-01
      21    -1     0     0   502   501  0.000000000E+00  0.000000000E+00  6.673975607E+01  6.673975607E+01  0.000000000E+00  0.00000E+00  9.000E+00
      21    -1     0     0   512   502  0.000000000E+00  0.000000000E+00 -7.660537773E+02  7.660537773E+02  0.000000000E+00  0.00000E+00  9.000E+00
      25     1     1     2     0     0 -3.653096772E+01  2.436645931E+01 -4.715494985E+02  4.898082947E+02  1.250000000E+02  0.00000E+00  9.000E+00
      25     1     1     2     0     0  9.546337220E+01  3.268803086E+01 -9.414937330E+01  1.862011474E+02  1.250000000E+02  0.00000E+00  9.000E+00
      21     1     1     2   512   501 -5.893240448E+01 -5.705449017E+01 -1.336151494E+02  1.567840913E+02  1.907348633E-06  0.00000E+00  9.000E+00
#rwgt            1           1   4.8551901209547936E-002           5        3011           0
</event>
<event>
      5   9999  3.79277E-02  4.77722E+00 -1.00000E+00  2.46531E-01
      21    -1     0     0   502   511  0.000000000E+00  0.000000000E+00  3.162341301E+02  3.162341301E+02  0.000000000E+00  0.00000E+00  9.000E+00
      21    -1     0     0   501   502  0.000000000E+00  0.000000000E+00 -2.752159695E+02  2.752159695E+02  0.000000000E+00  0.00000E+00  9.000E+00
      25     1     1     2     0     0  4.089289162E+01 -1.980560274E+02 -4.318845628E+01  2.416374585E+02  1.250000000E+02  0.00000E+00  9.000E+00
      25     1     1     2     0     0 -3.732588874E+01  2.012338144E+02 -2.443970752E+01  2.410613393E+02  1.250000000E+02  0.00000E+00  9.000E+00
      21     1     1     2   501   511 -3.567002877E+00 -3.177786961E+00  1.086463244E+02  1.087513018E+02  0.000000000E+00  0.00000E+00  9.000E+00
#rwgt            1           1   3.7322411533978105E-002           5        3093           0
</event>
<event>
      5   9999  3.79277E-02  1.28139E+02 -1.00000E+00  1.19171E-01
      21    -1     0     0   512   501  0.000000000E+00  0.000000000E+00  3.288316252E+02  3.288316252E+02  0.000000000E+00  0.00000E+00  9.000E+00
      21    -1     0     0   501   502  0.000000000E+00  0.000000000E+00 -2.897764751E+02  2.897764751E+02  0.000000000E+00  0.00000E+00  9.000E+00
      25     1     1     2     0     0 -1.396237780E+02  1.350455006E+02 -1.386205533E+02  2.693932895E+02  1.250000000E+02  0.00000E+00  9.000E+00
      25     1     1     2     0     0  4.063459400E+01 -5.367748910E+01  1.690857082E+02  2.207881786E+02  1.250000000E+02  0.00000E+00  9.000E+00
      21     1     1     2   512   502  9.898918395E+01 -8.136801153E+01  8.589995185E+00  1.284266322E+02  1.647505160E-06  0.00000E+00  9.000E+00
#rwgt            1           1   4.7966566323890125E-002           5        3488           0
</event>
<event>
      5   9999  3.79277E-02  2.49223E+01 -1.00000E+00  1.58852E-01
      21    -1     0     0   502   501  0.000000000E+00  0.000000000E+00  2.923035802E+02  2.923035802E+02  0.000000000E+00  0.00000E+00  9.000E+00
      21    -1     0     0   501   511  0.000000000E+00  0.000000000E+00 -1.816341639E+02  1.816341639E+02  0.000000000E+00  0.00000E+00  9.000E+00
      25     1     1     2     0     0  3.274899341E+01 -1.517797285E+02  1.203404521E+02  2.328441688E+02  1.250000000E+02  0.00000E+00  9.000E+00
      25     1     1     2     0     0 -1.964727736E+01  1.729802870E+02  1.109662402E-01  2.143203385E+02  1.250000000E+02  0.00000E+00  9.000E+00
      21     1     1     2   502   511 -1.310171605E+01 -2.120055848E+01 -9.782001970E+00  2.677323675E+01  6.194296387E-07  0.00000E+00  9.000E+00
#rwgt            1           1   4.4201878820120187E-002           5        3695           0
</event>
<event>
      5   9999  3.79277E-02  5.23054E+01 -1.00000E+00  1.37968E-01
      21    -1     0     0   502   512  0.000000000E+00  0.000000000E+00  2.688847318E+02  2.688847318E+02  0.000000000E+00  0.00000E+00  9.000E+00
      21    -1     0     0   501   502  0.000000000E+00  0.000000000E+00 -6.695690082E+02  6.695690082E+02  0.000000000E+00  0.00000E+00  9.000E+00
      25     1     1     2     0     0  2.733335507E+02  1.025978325E+02 -3.461229698E+02  4.697485023E+02  1.250000000E+02  0.00000E+00  9.000E+00
      25     1     1     2     0     0 -2.554800165E+02 -5.343377843E+01 -1.744454744E+02  3.379074297E+02  1.250000000E+02  0.00000E+00  9.000E+00
      21     1     1     2   501   512 -1.785353419E+01 -4.916405411E+01  1.198841678E+02  1.307978080E+02  1.348699152E-06  0.00000E+00  9.000E+00
#rwgt            1           1   2.5094520669299600E-002           5        3949           0
</event>
<event>
      5   9999  3.79277E-02  1.42642E+01 -1.00000E+00  1.79466E-01
      21    -1     0     0   502   511  0.000000000E+00  0.000000000E+00  6.945223462E+01  6.945223462E+01  0.000000000E+00  0.00000E+00  9.000E+00
      21    -1     0     0   501   502  0.000000000E+00  0.000000000E+00 -7.803364035E+02  7.803364035E+02  0.000000000E+00  0.00000E+00  9.000E+00
      25     1     1     2     0     0 -1.709572431E+02  2.851669348E+01 -2.258613808E+02  3.109307706E+02  1.250000000E+02  0.00000E+00  9.000E+00
      25     1     1     2     0     0  1.680434184E+02 -4.248012635E+01 -4.765375860E+02  5.222606844E+02  1.250000000E+02  0.00000E+00  9.000E+00
      21     1     1     2   501   511  2.913824728E+00  1.396343287E+01 -8.485202100E+00  1.659718310E+01  1.685873940E-07  0.00000E+00  9.000E+00
#rwgt            1           1   3.4494158181835044E-002           5        4156           0
</event>
<event>
      5   9999  3.79277E-02  3.12634E+01 -1.00000E+00  1.51806E-01
      21    -1     0     0   502   512  0.000000000E+00  0.000000000E+00  4.987383452E+02  4.987383452E+02  0.000000000E+00  0.00000E+00  9.000E+00
      21    -1     0     0   501   502  0.000000000E+00  0.000000000E+00 -6.748688492E+02  6.748688492E+02  0.000000000E+00  0.00000E+00  9.000E+00
      25     1     1     2     0     0 -1.892618569E+02 -1.615063057E+01  6.305666262E+01  2.359704135E+02  1.250000000E+02  0.00000E+00  9.000E+00
      25     1     1     2     0     0  2.071766252E+02 -9.470903557E+00 -5.627133321E+02  6.126035799E+02  1.250000000E+02  0.00000E+00  9.000E+00
      21     1     1     2   501   512 -1.791476833E+01  2.562153413E+01  3.235261655E+02  3.250332009E+02  3.814697266E-06  0.00000E+00  9.000E+00
#rwgt            1           1   3.1326769141136940E-002           5        4323           0
</event>
<event>
      5   9999  3.79277E-02  4.68861E+01 -1.00000E+00  1.40688E-01
      21    -1     0     0   502   501  0.000000000E+00  0.000000000E+00  3.217238138E+02  3.217238138E+02  0.000000000E+00  0.00000E+00  9.000E+00
      21    -1     0     0   511   502  0.000000000E+00  0.000000000E+00 -1.665345334E+02  1.665345334E+02  0.000000000E+00  0.00000E+00  9.000E+00
      25     1     1     2     0     0 -1.082057676E+02 -7.944322906E+01  1.375034875E+02  2.292420639E+02  1.250000000E+02  0.00000E+00  9.000E+00
      25     1     1     2     0     0  1.149143187E+02  1.258469178E+02  1.817625320E+01  2.121276115E+02  1.250000000E+02  0.00000E+00  9.000E+00
      21     1     1     2   511   501 -6.708551138E+00 -4.640368876E+01 -4.904603248E-01  4.688867177E+01  4.252056203E-07  0.00000E+00  9.000E+00
#rwgt            1           1   3.8888344955851743E-002           5        4444           0
</event>
<event>
      5   9999  3.79277E-02  1.66131E+02 -1.00000E+00  1.14662E-01
      21    -1     0     0   502   501  0.000000000E+00  0.000000000E+00  2.529598549E+02  2.529598549E+02  0.000000000E+00  0.00000E+00  9.000E+00
      -2    -1     0     0     0   502  0.000000000E+00  0.000000000E+00 -3.363602677E+02  3.363602677E+02  0.000000000E+00  0.00000E+00  9.000E+00
      25     1     1     2     0     0  2.610078601E+01 -7.915223264E-01 -1.511305704E+02  1.978568342E+02  1.250000000E+02  0.00000E+00  9.000E+00
      25     1     1     2     0     0 -8.825763921E+01 -1.532737323E+02  1.472343846E+01  2.170806936E+02  1.250000000E+02  0.00000E+00  9.000E+00
      -2     1     1     2     0   501  6.215685320E+01  1.540652547E+02  5.300671916E+01  1.743825948E+02  3.303624740E-06  0.00000E+00  9.000E+00
#rwgt            1           1   4.4961404528635701E-002           5        4607           0
</event>
<event>
      5   9999  3.79277E-02  6.68113E+01 -1.00000E+00  1.32254E-01
      21    -1     0     0   502   501  0.000000000E+00  0.000000000E+00  9.590779509E+02  9.590779509E+02  0.000000000E+00  0.00000E+00  9.000E+00
      21    -1     0     0   511   502  0.000000000E+00  0.000000000E+00 -5.082870633E+01  5.082870633E+01  0.000000000E+00  0.00000E+00  9.000E+00
      25     1     1     2     0     0  3.711320613E+01  6.006632132E+01  5.247720142E+02  5.440551626E+02  1.250000000E+02  0.00000E+00  9.000E+00
      25     1     1     2     0     0 -1.026905699E+02 -7.284741032E+01  3.470128715E+02  3.897371311E+02  1.250000000E+02  0.00000E+00  9.000E+00
      21     1     1     2   511   501  6.557736374E+01  1.278108900E+01  3.646435876E+01  7.611436350E+01  1.066240300E-06  0.00000E+00  9.000E+00
#rwgt            1           1   3.7584982024920763E-002           5        4677           0
</event>
<event>
      5   9999  3.79277E-02  1.41165E+02 -1.00000E+00  1.17448E-01
      21    -1     0     0   502   501  0.000000000E+00  0.000000000E+00  1.609048590E+02  1.609048590E+02  0.000000000E+00  0.00000E+00  9.000E+00
      21    -1     0     0   512   502  0.000000000E+00  0.000000000E+00 -1.587602430E+03  1.587602430E+03  0.000000000E+00  0.00000E+00  9.000E+00
      25     1     1     2     0     0  1.671233795E+02 -2.844645036E+02 -1.161396023E+03  1.213802290E+03  1.250000000E+02  0.00000E+00  9.000E+00
      25     1     1     2     0     0 -2.028551970E+02  1.478967344E+02 -6.202644894E+01  2.872210915E+02  1.250000000E+02  0.00000E+00  9.000E+00
      21     1     1     2   512   501  3.573181752E+01  1.365677692E+02 -2.032750989E+02  2.474839070E+02  4.672030912E-06  0.00000E+00  9.000E+00
#rwgt            1           1   3.1487476525960859E-002           5        4793           0
</event>
<event>
      5   9999  3.79277E-02  2.53840E+01 -1.00000E+00  1.58257E-01
      21    -1     0     0   502   511  0.000000000E+00  0.000000000E+00  6.117861663E+02  6.117861663E+02  0.000000000E+00  0.00000E+00  9.000E+00
      21    -1     0     0   501   502  0.000000000E+00  0.000000000E+00 -1.435796926E+02  1.435796926E+02  0.000000000E+00  0.00000E+00  9.000E+00
      25     1     1     2     0     0  2.469324153E+02 -2.332185540E+01  1.624697671E+02  3.217777990E+02  1.250000000E+02  0.00000E+00  9.000E+00
      25     1     1     2     0     0 -2.525315739E+02 -1.436890944E+00  2.853785098E+02  4.010488179E+02  1.250000000E+02  0.00000E+00  9.000E+00
      21     1     1     2   501   511  5.599158555E+00  2.475874635E+01  2.035819683E+01  3.253924208E+01  4.129530925E-07  0.00000E+00  9.000E+00
#rwgt            1           1   2.5130962902648130E-002           5        4884           0
</event>
<event>
      5   9999  3.79277E-02  8.91584E+01 -1.00000E+00  1.26112E-01
      21    -1     0     0   512   501  0.000000000E+00  0.000000000E+00  4.408092682E+02  4.408092682E+02  0.000000000E+00  0.00000E+00  9.000E+00
      21    -1     0     0   501   502  0.000000000E+00  0.000000000E+00 -2.488433666E+02  2.488433666E+02  0.000000000E+00  0.00000E+00  9.000E+00
      25     1     1     2     0     0  4.791674308E+01  1.610473136E+02 -9.770979097E+01  2.310940387E+02  1.250000000E+02  0.00000E+00  9.000E+00
      25     1     1     2     0     0  3.021433879E+00 -8.787268302E+01 -2.742247212E+00  1.528504413E+02  1.250000000E+02  0.00000E+00  9.000E+00
      21     1     1     2   512   502 -5.093817696E+01 -7.317463059E+01  2.924179398E+02  3.057081548E+02  0.000000000E+00  0.00000E+00  9.000E+00
#rwgt            1           1   3.4329128760991721E-002           5        5095           0
</event>
<event>
      5   9999  3.79277E-02  2.05453E+01 -1.00000E+00  1.65411E-01
      -5    -1     0     0     0   501  0.000000000E+00  0.000000000E+00  6.311428519E+02  6.311428519E+02  0.000000000E+00  0.00000E+00  9.000E+00
      21    -1     0     0   501   502  0.000000000E+00  0.000000000E+00 -1.300079863E+02  1.300079863E+02  0.000000000E+00  0.00000E+00  9.000E+00
      25     1     1     2     0     0 -9.471649524E+01  5.246105284E+01  2.412275708E+00  1.653910385E+02  1.250000000E+02  0.00000E+00  9.000E+00
      25     1     1     2     0     0  8.438378962E+01 -3.470314748E+01  7.577418002E+01  1.723126773E+02  1.250000000E+02  0.00000E+00  9.000E+00
      -5     1     1     2     0   502  1.033270562E+01 -1.775790535E+01  4.229484099E+02  4.234471224E+02  5.394796609E-06  0.00000E+00  9.000E+00
#rwgt            1           1   4.4033352014273032E-002           5        5250           0
</event>
<event>
      5   9999 -3.79277E-02  6.64716E+01 -1.00000E+00  1.32368E-01
      21    -1     0     0   502   501  0.000000000E+00  0.000000000E+00  7.514400179E+01  7.514400179E+01  0.000000000E+00  0.00000E+00  9.000E+00
      21    -1     0     0   511   502  0.000000000E+00  0.000000000E+00 -8.838446096E+02  8.838446096E+02  0.000000000E+00  0.00000E+00  9.000E+00
      25     1     1     2     0     0  5.824548567E+01 -1.170453649E+02 -1.282481661E+02  2.217312476E+02  1.250000000E+02  0.00000E+00  9.000E+00
      25     1     1     2     0     0 -2.417916185E+01  1.741239356E+02 -4.848163881E+02  5.306370765E+02  1.250000000E+02  0.00000E+00  9.000E+00
      21     1     1     2   511   501 -3.406632381E+01 -5.707857074E+01 -1.956360536E+02  2.066202873E+02  2.697398305E-06  0.00000E+00  9.000E+00
#rwgt            1           1 -0.10301695466616348                5        5539           0
</event>
<event>
      5   9999  3.79277E-02  9.39674E+01 -1.00000E+00  1.25056E-01
       2    -1     0     0   502     0  0.000000000E+00  0.000000000E+00  1.233336246E+03  1.233336246E+03  0.000000000E+00  0.00000E+00  9.000E+00
      21    -1     0     0   501   502  0.000000000E+00  0.000000000E+00 -5.467539673E+01  5.467539673E+01  0.000000000E+00  0.00000E+00  9.000E+00
      25     1     1     2     0     0  9.460743031E+01  2.259521873E+01  3.726401282E+02  4.049034143E+02  1.250000000E+02  0.00000E+00  9.000E+00
      25     1     1     2     0     0 -1.429182411E+02  5.800220711E+01  2.501870658E+02  3.193876134E+02  1.250000000E+02  0.00000E+00  9.000E+00
       2     1     1     2   501     0  4.831081084E+01 -8.059742584E+01  5.558336553E+02  5.637206150E+02  7.629394531E-06  0.00000E+00  9.000E+00
#rwgt            1           1   3.2740734662769722E-002           5        5677           0
</event>
<event>
      5   9999  3.79277E-02  2.59717E+01 -1.00000E+00  1.57520E-01
      21    -1     0     0   502   501  0.000000000E+00  0.000000000E+00  5.861348071E+01  5.861348071E+01  0.000000000E+00  0.00000E+00  9.000E+00
      21    -1     0     0   501   511  0.000000000E+00  0.000000000E+00 -7.049646281E+02  7.049646281E+02  0.000000000E+00  0.00000E+00  9.000E+00
      25     1     1     2     0     0  5.429805076E+01  1.220478363E+02 -2.201523453E+02  2.862446642E+02  1.250000000E+02  0.00000E+00  9.000E+00
      25     1     1     2     0     0 -2.891859985E+01 -1.275627313E+02 -3.161230734E+02  3.642352720E+02  1.250000000E+02  0.00000E+00  9.000E+00
      21     1     1     2   502   511 -2.537945091E+01  5.514894965E+00 -1.100757287E+02  1.130981726E+02  1.348699152E-06  0.00000E+00  9.000E+00
#rwgt            1           1   3.4209477460284569E-002           5        5770           0
</event>
<event>
      5   9999  3.79277E-02  5.50851E+01 -1.00000E+00  1.36717E-01
      21    -1     0     0   502   512  0.000000000E+00  0.000000000E+00  4.537206707E+01  4.537206707E+01  0.000000000E+00  0.00000E+00  9.000E+00
      21    -1     0     0   501   502  0.000000000E+00  0.000000000E+00 -9.535314470E+02  9.535314470E+02  0.000000000E+00  0.00000E+00  9.000E+00
      25     1     1     2     0     0 -8.484998005E+01 -1.281076318E+01 -5.135920833E+02  5.355048672E+02  1.250000000E+02  0.00000E+00  9.000E+00
      25     1     1     2     0     0  1.289617074E+02  4.580348644E+01 -3.303317911E+02  3.787785284E+02  1.250000000E+02  0.00000E+00  9.000E+00
      21     1     1     2   501   512 -4.411172738E+01 -3.299272326E+01 -6.423550551E+01  8.462011846E+01  1.348699152E-06  0.00000E+00  9.000E+00
#rwgt            1           1   4.4627445898511475E-002           5        5873           0
</event>
<event>
      5   9999  3.79277E-02  2.54032E+01 -1.00000E+00  1.58232E-01
      21    -1     0     0   502   501  0.000000000E+00  0.000000000E+00  4.449005352E+01  4.449005352E+01  0.000000000E+00  0.00000E+00  9.000E+00
      21    -1     0     0   511   502  0.000000000E+00  0.000000000E+00 -1.115859838E+03  1.115859838E+03  0.000000000E+00  0.00000E+00  9.000E+00
      25     1     1     2     0     0 -5.479848990E+01  1.230922716E+02 -2.741676992E+02  3.300719756E+02  1.250000000E+02  0.00000E+00  9.000E+00
      25     1     1     2     0     0  6.939577289E+01 -1.438827332E+02 -6.504362941E+02  6.813298664E+02  1.250000000E+02  0.00000E+00  9.000E+00
      21     1     1     2   511   501 -1.459728300E+01  2.079046159E+01 -1.467657908E+02  1.489480490E+02  0.000000000E+00  0.00000E+00  9.000E+00
#rwgt            1           1   4.1543458138671760E-002           5        6243           0
</event>
<event>
      5   9999  3.79277E-02  3.21421E+01 -1.00000E+00  1.50988E-01
      21    -1     0     0   502   501  0.000000000E+00  0.000000000E+00  9.682477288E+01  9.682477288E+01  0.000000000E+00  0.00000E+00  9.000E+00
      21    -1     0     0   501   512  0.000000000E+00  0.000000000E+00 -1.139625220E+03  1.139625220E+03  0.000000000E+00  0.00000E+00  9.000E+00
      25     1     1     2     0     0  8.424226383E+00  2.772441602E+02 -7.390649322E+02  7.992354258E+02  1.250000000E+02  0.00000E+00  9.000E+00
      25     1     1     2     0     0 -9.871446906E+00 -2.451346430E+02 -2.376140787E+02  3.636947746E+02  1.250000000E+02  0.00000E+00  9.000E+00
      21     1     1     2   502   512  1.447220523E+00 -3.210951729E+01 -6.612143588E+01  7.351979211E+01  9.536743164E-07  0.00000E+00  9.000E+00
#rwgt            1           1   3.8844969159196052E-002           5        6481           0
</event>
<event>
      5   9999  3.79277E-02  1.37759E+02 -1.00000E+00  1.17878E-01
      -1    -1     0     0     0   501  0.000000000E+00  0.000000000E+00  2.904602787E+03  2.904602787E+03  0.000000000E+00  0.00000E+00  9.000E+00
      21    -1     0     0   501   502  0.000000000E+00  0.000000000E+00 -1.847139158E+03  1.847139158E+03  0.000000000E+00  0.00000E+00  9.000E+00
      25     1     1     2     0     0 -3.332388005E+01 -1.040994752E+02 -9.853483716E+02  9.992415099E+02  1.250000000E+02  0.00000E+00  9.000E+00
      25     1     1     2     0     0 -1.043449633E+02  1.090921301E+02 -8.419446624E+02  8.644563487E+02  1.250000000E+02  0.00000E+00  9.000E+00
      -1     1     1     2     0   502  1.376688434E+02 -4.992654874E+00  2.884756664E+03  2.888044086E+03  0.000000000E+00  0.00000E+00  9.000E+00
#rwgt            1           1  0.14053425702591099                5        6782           0
</event>
<event>
      5   9999 -3.79277E-02  6.20286E+00 -1.00000E+00  2.23252E-01
      21    -1     0     0   511   501  0.000000000E+00  0.000000000E+00  2.372396105E+01  2.372396105E+01  0.000000000E+00  0.00000E+00  9.000E+00
      21    -1     0     0   501   502  0.000000000E+00  0.000000000E+00 -1.680235312E+03  1.680235312E+03  0.000000000E+00  0.00000E+00  9.000E+00
      25     1     1     2     0     0 -1.470863634E+02  1.348526845E+01 -7.669424036E+02  7.909752848E+02  1.250000000E+02  0.00000E+00  9.000E+00
      25     1     1     2     0     0  1.470586505E+02 -1.968807039E+01 -8.825262083E+02  9.035991231E+02  1.250000000E+02  0.00000E+00  9.000E+00
      21     1     1     2   511   502  2.771295645E-02  6.202801935E+00 -7.042738741E+00  9.384864881E+00  3.153981341E-07  0.00000E+00  9.000E+00
#rwgt            1           1 -0.10444906197704702                5        6838           0
</event>
<event>
      5   9999  3.79277E-02  3.18690E+01 -1.00000E+00  1.51239E-01
      21    -1     0     0   512   501  0.000000000E+00  0.000000000E+00  1.990922739E+02  1.990922739E+02  0.000000000E+00  0.00000E+00  9.000E+00
      21    -1     0     0   501   502  0.000000000E+00  0.000000000E+00 -6.703605876E+02  6.703605876E+02  0.000000000E+00  0.00000E+00  9.000E+00
      25     1     1     2     0     0  1.349990146E+02 -4.924151252E+00 -5.382660371E+02  5.688622926E+02  1.250000000E+02  0.00000E+00  9.000E+00
      25     1     1     2     0     0 -1.085296151E+02 -1.282426963E+01 -5.468001051E+01  1.748085890E+02  1.250000000E+02  0.00000E+00  9.000E+00
      21     1     1     2   512   502 -2.646939945E+01  1.774842089E+01  1.216777339E+02  1.257819799E+02  2.697398305E-06  0.00000E+00  9.000E+00
#rwgt            1           1   4.2591764372839430E-002           5        7055           0
</event>
<event>
      5   9999  3.79277E-02  7.18633E+01 -1.00000E+00  1.30645E-01
      21    -1     0     0   502   501  0.000000000E+00  0.000000000E+00  4.017536949E+02  4.017536949E+02  0.000000000E+00  0.00000E+00  9.000E+00
       2    -1     0     0   501     0  0.000000000E+00  0.000000000E+00 -1.758862188E+03  1.758862188E+03  0.000000000E+00  0.00000E+00  9.000E+00
      25     1     1     2     0     0 -1.118487672E+02 -1.236525422E+01  3.403607985E+02  3.796492057E+02  1.250000000E+02  0.00000E+00  9.000E+00
      25     1     1     2     0     0  5.124086583E+01 -2.624839459E+01 -7.466303553E+01  1.565700272E+02  1.250000000E+02  0.00000E+00  9.000E+00
       2     1     1     2   502     0  6.060790140E+01  3.861364881E+01 -1.622806257E+03  1.624396650E+03  2.157918644E-05  0.00000E+00  9.000E+00
#rwgt            1           1   5.4494806892491643E-002           5        7214           0
</event>
<event>
      5   9999 -3.79277E-02  5.71664E+01 -1.00000E+00  1.35836E-01
      21    -1     0     0   502   501  0.000000000E+00  0.000000000E+00  3.926826633E+02  3.926826633E+02  0.000000000E+00  0.00000E+00  9.000E+00
      21    -1     0     0   511   502  0.000000000E+00  0.000000000E+00 -2.817036229E+02  2.817036229E+02  0.000000000E+00  0.00000E+00  9.000E+00
      25     1     1     2     0     0 -7.313086809E+01 -2.104614755E+02 -4.172442926E+01  2.588591983E+02  1.250000000E+02  0.00000E+00  9.000E+00
      25     1     1     2     0     0  1.290444723E+02  2.223638549E+02  1.935813830E+02  3.452490574E+02  1.250000000E+02  0.00000E+00  9.000E+00
      21     1     1     2   511   501 -5.591360423E+01 -1.190237936E+01 -4.087791332E+01  7.027803050E+01  1.168007728E-06  0.00000E+00  9.000E+00
#rwgt            1           1 -0.30368049323564306                5        7275           0
</event>
<event>
      5   9999  3.79277E-02  1.78365E+01 -1.00000E+00  1.70579E-01
      21    -1     0     0   502   501  0.000000000E+00  0.000000000E+00  4.959761193E+01  4.959761193E+01  0.000000000E+00  0.00000E+00  9.000E+00
      21    -1     0     0   512   502  0.000000000E+00  0.000000000E+00 -1.500250665E+03  1.500250665E+03  0.000000000E+00  0.00000E+00  9.000E+00
      25     1     1     2     0     0 -7.720903563E+01 -1.019789930E+02 -1.486918997E+02  2.325838155E+02  1.250000000E+02  0.00000E+00  9.000E+00
      25     1     1     2     0     0  9.237891936E+01  9.259741524E+01 -1.223284145E+03  1.236590977E+03  1.250000000E+02  0.00000E+00  9.000E+00
      21     1     1     2   512   501 -1.516988374E+01  9.381577768E+00 -7.867700873E+01  8.067348434E+01  9.536743164E-07  0.00000E+00  9.000E+00
#rwgt            1           1   3.6291972320068290E-002           5        7365           0
</event>
<event>
      5   9999  3.79277E-02  1.29262E+02 -1.00000E+00  1.19014E-01
      21    -1     0     0   502   501  0.000000000E+00  0.000000000E+00  2.805957381E+02  2.805957381E+02  0.000000000E+00  0.00000E+00  9.000E+00
      21    -1     0     0   511   502  0.000000000E+00  0.000000000E+00 -3.835605685E+02  3.835605685E+02  0.000000000E+00  0.00000E+00  9.000E+00
      25     1     1     2     0     0 -1.943722872E+01  2.426989075E+02  2.197946131E+01  2.745699588E+02  1.250000000E+02  0.00000E+00  9.000E+00
      25     1     1     2     0     0  3.885951989E+00 -1.143758183E+02  4.568327943E+01  1.755246150E+02  1.250000000E+02  0.00000E+00  9.000E+00
      21     1     1     2   511   501  1.555127673E+01 -1.283230892E+02 -1.706275712E+02  2.140617329E+02  1.907348633E-06  0.00000E+00  9.000E+00
#rwgt            1           1   3.8703113322253513E-002           5        7695           0
</event>
<event>
      5   9999  3.79277E-02  4.21490E+01 -1.00000E+00  1.43445E-01
      21    -1     0     0   512   501  0.000000000E+00  0.000000000E+00  6.291199067E+02  6.291199067E+02  0.000000000E+00  0.00000E+00  9.000E+00
      21    -1     0     0   501   502  0.000000000E+00  0.000000000E+00 -7.247901910E+01  7.247901910E+01  0.000000000E+00  0.00000E+00  9.000E+00
      25     1     1     2     0     0  1.197238849E+02  7.985909008E+01  2.326360128E+02  3.007587029E+02  1.250000000E+02  0.00000E+00  9.000E+00
      25     1     1     2     0     0 -1.002441038E+02 -4.248155209E+01  1.559974520E+02  2.276263773E+02  1.250000000E+02  0.00000E+00  9.000E+00
      21     1     1     2   512   502 -1.947978118E+01 -3.737753799E+01  1.680074228E+02  1.732138457E+02  2.697398305E-06  0.00000E+00  9.000E+00
#rwgt            1           1  0.17628227088730536                5        7757           0
</event>
<event>
      5   9999  3.79277E-02  2.98051E+01 -1.00000E+00  1.53237E-01
      21    -1     0     0   502   511  0.000000000E+00  0.000000000E+00  1.051399293E+03  1.051399293E+03  0.000000000E+00  0.00000E+00  9.000E+00
      21    -1     0     0   501   502  0.000000000E+00  0.000000000E+00 -8.691803802E+01  8.691803802E+01  0.000000000E+00  0.00000E+00  9.000E+00
      25     1     1     2     0     0 -2.377814381E+02 -2.837930607E+01  4.125263475E+02  4.931007855E+02  1.250000000E+02  0.00000E+00  9.000E+00
      25     1     1     2     0     0  2.204768384E+02  4.112185712E+00  3.055013533E+02  3.969672823E+02  1.250000000E+02  0.00000E+00  9.000E+00
      21     1     1     2   501   511  1.730459966E+01  2.426712036E+01  2.464535541E+02  2.482492631E+02  3.814697266E-06  0.00000E+00  9.000E+00
#rwgt            1           1   3.1862286103829539E-002           5        7954           0
</event>
<event>
      5   9999  3.79277E-02  3.45308E+01 -1.00000E+00  1.48915E-01
      21    -1     0     0   502   501  0.000000000E+00  0.000000000E+00  3.804471850E+02  3.804471850E+02  0.000000000E+00  0.00000E+00  9.000E+00
      21    -1     0     0   501   512  0.000000000E+00  0.000000000E+00 -1.242766312E+02  1.242766312E+02  0.000000000E+00  0.00000E+00  9.000E+00
      25     1     1     2     0     0  1.371971008E+02  5.133375777E+00  2.028967667E+02  2.750299874E+02  1.250000000E+02  0.00000E+00  9.000E+00
      25     1     1     2     0     0 -1.134202374E+02 -3.017403107E+01  7.683407746E+01  1.878911862E+02  1.250000000E+02  0.00000E+00  9.000E+00
      21     1     1     2   502   512 -2.377686345E+01  2.504065529E+01 -2.356029028E+01  4.180264263E+01  5.840038640E-07  0.00000E+00  9.000E+00
#rwgt            1           1   2.6581597341446762E-002           5        8187           0
</event>
<event>
      5   9999  3.79277E-02  3.97364E+01 -1.00000E+00  1.45018E-01
      21    -1     0     0   502   501  0.000000000E+00  0.000000000E+00  5.794277344E+02  5.794277344E+02  0.000000000E+00  0.00000E+00  9.000E+00
      21    -1     0     0   501   511  0.000000000E+00  0.000000000E+00 -2.033366842E+02  2.033366842E+02  0.000000000E+00  0.00000E+00  9.000E+00
      25     1     1     2     0     0 -1.789189131E+01 -1.610263365E+02  4.273463293E+02  4.738137672E+02  1.250000000E+02  0.00000E+00  9.000E+00
      25     1     1     2     0     0  3.894274722E+00  1.982157216E+02  1.152241720E+01  2.346537955E+02  1.250000000E+02  0.00000E+00  9.000E+00
      21     1     1     2   502   511  1.399761659E+01 -3.718938505E+01 -6.277769634E+01  7.429685584E+01  1.507891493E-06  0.00000E+00  9.000E+00
#rwgt            1           1   3.2973009782795611E-002           5        8446           0
</event>
<event>
      5   9999  3.79277E-02  1.39468E+02 -1.00000E+00  1.17661E-01
      21    -1     0     0   502   501  0.000000000E+00  0.000000000E+00  5.237050426E+02  5.237050426E+02  0.000000000E+00  0.00000E+00  9.000E+00
      21    -1     0     0   512   502  0.000000000E+00  0.000000000E+00 -2.344917932E+02  2.344917932E+02  0.000000000E+00  0.00000E+00  9.000E+00
      25     1     1     2     0     0 -3.921484440E+01  1.691734681E+02  1.235778434E+02  2.470909745E+02  1.250000000E+02  0.00000E+00  9.000E+00
      25     1     1     2     0     0  5.811641589E+01 -3.073543341E+02  1.562398992E+02  3.713221116E+02  1.250000000E+02  0.00000E+00  9.000E+00
      21     1     1     2   512   501 -1.890157149E+01  1.381808660E+02  9.395506886E+00  1.397837497E+02  6.743495762E-07  0.00000E+00  9.000E+00
#rwgt            1           1   3.1989280470632278E-002           5        8571           0
</event>
<event>
      5   9999  3.79277E-02  7.66700E+01 -1.00000E+00  1.29250E-01
      21    -1     0     0   502   511  0.000000000E+00  0.000000000E+00  2.253384663E+02  2.253384663E+02  0.000000000E+00  0.00000E+00  9.000E+00
      21    -1     0     0   501   502  0.000000000E+00  0.000000000E+00 -2.410608695E+02  2.410608695E+02  0.000000000E+00  0.00000E+00  9.000E+00
      25     1     1     2     0     0 -2.744380782E+01 -9.022638566E+01 -1.509657924E+02  2.175077786E+02  1.250000000E+02  0.00000E+00  9.000E+00
      25     1     1     2     0     0  3.896927889E+01  1.442766107E+01  9.405625527E+01  1.618590166E+02  1.250000000E+02  0.00000E+00  9.000E+00
      21     1     1     2   501   511 -1.152547108E+01  7.579872459E+01  4.118713390E+01  8.703254065E+01  1.651812370E-06  0.00000E+00  9.000E+00
#rwgt            1           1   3.4876612577427690E-002           5        8644           0
</event>
<event>
      5   9999  3.79277E-02  4.02864E+01 -1.00000E+00  1.44648E-01
      21    -1     0     0   502   501  0.000000000E+00  0.000000000E+00  4.284084814E+02  4.284084814E+02  0.000000000E+00  0.00000E+00  9.000E+00
      21    -1     0     0   512   502  0.000000000E+00  0.000000000E+00 -1.336980466E+02  1.336980466E+02  0.000000000E+00  0.00000E+00  9.000E+00
      25     1     1     2     0     0  1.489072171E+02  5.129666615E+01  7.730438828E+01  2.154197663E+02  1.250000000E+02  0.00000E+00  9.000E+00
      25     1     1     2     0     0 -1.712400375E+02 -8.482634143E+01  1.967152422E+02  3.013976529E+02  1.250000000E+02  0.00000E+00  9.000E+00
      21     1     1     2   512   501  2.233282044E+01  3.352967528E+01  2.069080439E+01  4.528910884E+01  5.331201500E-07  0.00000E+00  9.000E+00
#rwgt            1           1   3.6015955283854054E-002           5        8844           0
</event>
<event>
      5   9999  3.79277E-02  2.01430E+01 -1.00000E+00  1.66114E-01
      21    -1     0     0   502   511  0.000000000E+00  0.000000000E+00  1.951252089E+02  1.951252089E+02  0.000000000E+00  0.00000E+00  9.000E+00
      21    -1     0     0   501   502  0.000000000E+00  0.000000000E+00 -2.066762761E+02  2.066762761E+02  0.000000000E+00  0.00000E+00  9.000E+00
      25     1     1     2     0     0 -1.372830550E+02 -4.819845848E+01 -1.497232159E+01  1.924029600E+02  1.250000000E+02  0.00000E+00  9.000E+00
      25     1     1     2     0     0  1.392205551E+02  2.814886422E+01  3.933376158E+00  1.892490237E+02  1.250000000E+02  0.00000E+00  9.000E+00
      21     1     1     2   501   511 -1.937500049E+00  2.004959426E+01 -5.121217648E-01  2.014950137E+01  1.475139698E-07  0.00000E+00  9.000E+00
#rwgt            1           1   4.5350368715381992E-002           5        8950           0
</event>
<event>
      5   9999  3.79277E-02  9.77281E+00 -1.00000E+00  1.96918E-01
      21    -1     0     0   502   512  0.000000000E+00  0.000000000E+00  1.418746498E+02  1.418746498E+02  0.000000000E+00  0.00000E+00  9.000E+00
      21    -1     0     0   501   502  0.000000000E+00  0.000000000E+00 -4.287149278E+02  4.287149278E+02  0.000000000E+00  0.00000E+00  9.000E+00
      25     1     1     2     0     0 -3.269505915E+00  2.075067753E+01  9.435296875E+01  1.580150721E+02  1.250000000E+02  0.00000E+00  9.000E+00
      25     1     1     2     0     0  1.904548679E+00 -3.042769810E+01 -3.816866584E+02  4.027892468E+02  1.250000000E+02  0.00000E+00  9.000E+00
      21     1     1     2   501   512  1.364957236E+00  9.677020574E+00  4.934116148E-01  9.785258835E+00  1.698176759E-07  0.00000E+00  9.000E+00
#rwgt            1           1   2.8285741228404992E-002           5        9151           0
</event>
<event>
      5   9999  3.79277E-02  2.10419E+01 -1.00000E+00  1.64570E-01
      21    -1     0     0   502   511  0.000000000E+00  0.000000000E+00  1.630763605E+01  1.630763605E+01  0.000000000E+00  0.00000E+00  9.000E+00
      21    -1     0     0   501   502  0.000000000E+00  0.000000000E+00 -2.726189685E+03  2.726189685E+03  0.000000000E+00  0.00000E+00  9.000E+00
      25     1     1     2     0     0 -3.999655241E+01  8.559917431E+01 -1.259382864E+03  1.269093038E+03  1.250000000E+02  0.00000E+00  9.000E+00
      25     1     1     2     0     0  1.968831771E+01 -8.009108428E+01 -1.443472359E+03  1.451220060E+03  1.250000000E+02  0.00000E+00  9.000E+00
      21     1     1     2   501   511  2.030823471E+01 -5.508090033E+00 -7.026826647E+00  2.218422290E+01  1.105501472E-06  0.00000E+00  9.000E+00
#rwgt            1           1   2.8903534658000943E-002           5        9468           0
</event>
<event>
      5   9999  3.79277E-02  3.93183E+01 -1.00000E+00  1.45305E-01
      21    -1     0     0   502   501  0.000000000E+00  0.000000000E+00  1.267778186E+02  1.267778186E+02  0.000000000E+00  0.00000E+00  9.000E+00
      21    -1     0     0   512   502  0.000000000E+00  0.000000000E+00 -1.095974410E+03  1.095974410E+03  0.000000000E+00  0.00000E+00  9.000E+00
      25     1     1     2     0     0 -9.349395934E+01  1.845633817E+02 -8.050154215E+01  2.547749214E+02  1.250000000E+02  0.00000E+00  9.000E+00
      25     1     1     2     0     0  9.467603306E+01 -1.452628850E+02 -2.536016558E+02  3.316679918E+02  1.250000000E+02  0.00000E+00  9.000E+00
      21     1     1     2   512   501 -1.182073714E+00 -3.930049670E+01 -6.350933935E+02  6.363093154E+02  7.629394531E-06  0.00000E+00  9.000E+00
#rwgt            1           1   7.7600361270812088E-002           5        9632           0
</event>
<event>
      5   9999  3.79277E-02  4.58403E+00 -1.00000E+00  2.50261E-01
      21    -1     0     0   502   511  0.000000000E+00  0.000000000E+00  1.691796907E+02  1.691796907E+02  0.000000000E+00  0.00000E+00  9.000E+00
      21    -1     0     0   501   502  0.000000000E+00  0.000000000E+00 -2.056462896E+02  2.056462896E+02  0.000000000E+00  0.00000E+00  9.000E+00
      25     1     1     2     0     0  1.083185652E+02 -5.016282487E+01 -6.837505126E+01  1.858746034E+02  1.250000000E+02  0.00000E+00  9.000E+00
      25     1     1     2     0     0 -1.081259024E+02  4.558284737E+01  1.576544447E+01  1.721701367E+02  1.250000000E+02  0.00000E+00  9.000E+00
      21     1     1     2   501   511 -1.926628378E-01  4.579977501E+00  1.614300792E+01  1.678124004E+01  3.371747881E-07  0.00000E+00  9.000E+00
#rwgt            1           1   4.4572182136997193E-002           5        9883           0
</event>
<event>
      5   9999  3.79277E-02  2.85129E+01 -1.00000E+00  1.54589E-01
      21    -1     0     0   502   512  0.000000000E+00  0.000000000E+00  1.588132176E+02  1.588132176E+02  0.000000000E+00  0.00000E+00  9.000E+00
      21    -1     0     0   501   502  0.000000000E+00  0.000000000E+00 -7.015079413E+02  7.015079413E+02  0.000000000E+00  0.00000E+00  9.000E+00
      25     1     1     2     0     0 -6.547447764E+01  1.447917944E+02  5.607110209E+01  2.098107229E+02  1.250000000E+02  0.00000E+00  9.000E+00
      25     1     1     2     0     0  3.966008788E+01 -1.326839228E+02 -5.926907003E+02  6.213575558E+02  1.250000000E+02  0.00000E+00  9.000E+00
      21     1     1     2   501   512  2.581438975E+01 -1.210787168E+01 -6.075125559E+00  2.915288023E+01  3.576278687E-07  0.00000E+00  9.000E+00
#rwgt            1           1   3.5252169749561760E-002           5       10281           0
</event>
<event>
      5   9999 -3.79277E-02  7.20085E+01 -1.00000E+00  1.30601E-01
      21    -1     0     0   502   511  0.000000000E+00  0.000000000E+00  2.262295991E+01  2.262295991E+01  0.000000000E+00  0.00000E+00  9.000E+00
      21    -1     0     0   501   502  0.000000000E+00  0.000000000E+00 -3.259204279E+03  3.259204279E+03  0.000000000E+00  0.00000E+00  9.000E+00
      25     1     1     2     0     0  6.238275027E+01 -1.816372503E+02 -1.281748529E+03  1.302070655E+03  1.250000000E+02  0.00000E+00  9.000E+00
      25     1     1     2     0     0 -1.307587396E+02  1.590552633E+02 -1.538536811E+03  1.557278698E+03  1.250000000E+02  0.00000E+00  9.000E+00
      21     1     1     2   501   511  6.837598936E+01  2.258198704E+01 -4.162959788E+02  4.224778858E+02  5.394796609E-06  0.00000E+00  9.000E+00
#rwgt            1           1 -0.25899056476389376                5       10437           0
</event>
<event>
      5   9999  3.79277E-02  3.49361E+01 -1.00000E+00  1.48583E-01
      21    -1     0     0   502   501  0.000000000E+00  0.000000000E+00  4.458660409E+02  4.458660409E+02  0.000000000E+00  0.00000E+00  9.000E+00
      21    -1     0     0   512   502  0.000000000E+00  0.000000000E+00 -1.159334767E+02  1.159334767E+02  0.000000000E+00  0.00000E+00  9.000E+00
      25     1     1     2     0     0 -5.883318626E+01 -1.438414315E+02  1.012035908E+02  2.236489839E+02  1.250000000E+02  0.00000E+00  9.000E+00
      25     1     1     2     0     0  9.115955372E+01  1.305922885E+02  2.255228430E+02  3.030675878E+02  1.250000000E+02  0.00000E+00  9.000E+00
      21     1     1     2   512   501 -3.232636746E+01  1.324914297E+01  3.206130370E+00  3.508294592E+01  7.644745909E-07  0.00000E+00  9.000E+00
#rwgt            1           1   3.2466274596227612E-002           5       10603           0
</event>
<event>
      5   9999  3.79277E-02  2.00699E+01 -1.00000E+00  1.66244E-01
      21    -1     0     0   511   501  0.000000000E+00  0.000000000E+00  3.347761970E+02  3.347761970E+02  0.000000000E+00  0.00000E+00  9.000E+00
      21    -1     0     0   501   502  0.000000000E+00  0.000000000E+00 -2.369189647E+02  2.369189647E+02  0.000000000E+00  0.00000E+00  9.000E+00
      25     1     1     2     0     0 -6.574531281E+01  1.211693460E+02 -1.282645518E+02  2.260116188E+02  1.250000000E+02  0.00000E+00  9.000E+00
      25     1     1     2     0     0  8.569596647E+01 -1.233538454E+02  1.029171906E+02  2.208549704E+02  1.250000000E+02  0.00000E+00  9.000E+00
      21     1     1     2   511   502 -1.995065366E+01  2.184499410E+00  1.232045936E+02  1.248285725E+02  0.000000000E+00  0.00000E+00  9.000E+00
#rwgt            1           1   7.9534822626202012E-002           5       10816           0
</event>
<event>
      5   9999  3.79277E-02  4.21849E+01 -1.00000E+00  1.43422E-01
      21    -1     0     0   502   501  0.000000000E+00  0.000000000E+00  1.204806259E+03  1.204806259E+03  0.000000000E+00  0.00000E+00  9.000E+00
      21    -1     0     0   501   512  0.000000000E+00  0.000000000E+00 -3.566136033E+01  3.566136033E+01  0.000000000E+00  0.00000E+00  9.000E+00
      25     1     1     2     0     0 -5.712329112E+01  4.314750350E+01  8.270173110E+02  8.394685283E+02  1.250000000E+02  0.00000E+00  9.000E+00
      25     1     1     2     0     0  9.876374963E+01 -4.990283223E+01  2.760604866E+02  3.226127139E+02  1.250000000E+02  0.00000E+00  9.000E+00
      21     1     1     2   502   512 -4.164045852E+01  6.755328732E+00  6.606710061E+01  7.838637659E+01  9.536743164E-07  0.00000E+00  9.000E+00
#rwgt            1           1   4.3899576594753485E-002           5       10961           0
</event>
<event>
      5   9999  3.79277E-02  2.70521E+01 -1.00000E+00  1.56227E-01
      21    -1     0     0   502   511  0.000000000E+00  0.000000000E+00  1.222554002E+02  1.222554002E+02  0.000000000E+00  0.00000E+00  9.000E+00
      21    -1     0     0   501   502  0.000000000E+00  0.000000000E+00 -4.803390820E+02  4.803390820E+02  0.000000000E+00  0.00000E+00  9.000E+00
      25     1     1     2     0     0 -6.309576716E+01 -3.363269048E+00  1.205509528E+01  1.405799158E+02  1.250000000E+02  0.00000E+00  9.000E+00
      25     1     1     2     0     0  8.427531287E+01  2.019301418E+01 -3.962357263E+02  4.244264801E+02  1.250000000E+02  0.00000E+00  9.000E+00
      21     1     1     2   501   511 -2.117954571E+01 -1.682974513E+01  2.609694919E+01  3.758808634E+01  4.768371582E-07  0.00000E+00  9.000E+00
#rwgt            1           1   5.5616765505743716E-002           5       11106           0
</event>
<event>
      5   9999  3.79277E-02  4.82975E+01 -1.00000E+00  1.39939E-01
      21    -1     0     0   502   501  0.000000000E+00  0.000000000E+00  1.265973980E+02  1.265973980E+02  0.000000000E+00  0.00000E+00  9.000E+00
      21    -1     0     0   512   502  0.000000000E+00  0.000000000E+00 -5.204245032E+02  5.204245032E+02  0.000000000E+00  0.00000E+00  9.000E+00
      25     1     1     2     0     0 -2.850445161E+01 -9.670285167E+01 -1.743116737E+02  2.370095038E+02  1.250000000E+02  0.00000E+00  9.000E+00
      25     1     1     2     0     0  3.555935100E+01  1.444822741E+02 -9.552086742E+00  1.945657661E+02  1.250000000E+02  0.00000E+00  9.000E+00
      21     1     1     2   512   501 -7.054899389E+00 -4.777942244E+01 -2.099633447E+02  2.154466313E+02  2.697398305E-06  0.00000E+00  9.000E+00
#rwgt            1           1   3.9341851637326390E-002           5       11312           0
</event>
<event>
      5   9999  3.79277E-02  9.21123E+00 -1.00000E+00  1.99975E-01
      21    -1     0     0   502   501  0.000000000E+00  0.000000000E+00  1.648438463E+03  1.648438463E+03  0.000000000E+00  0.00000E+00  9.000E+00
      21    -1     0     0   501   511  0.000000000E+00  0.000000000E+00 -2.650727007E+01  2.650727007E+01  0.000000000E+00  0.00000E+00  9.000E+00
      25     1     1     2     0     0 -1.285345782E+02 -9.399307757E+01  6.236395882E+02  6.556730682E+02  1.250000000E+02  0.00000E+00  9.000E+00
      25     1     1     2     0     0  1.195144661E+02  9.212645185E+01  9.670023963E+02  9.866557785E+02  1.250000000E+02  0.00000E+00  9.000E+00
      21     1     1     2   502   511  9.020112091E+00  1.866625722E+00  3.128920887E+01  3.261688682E+01  7.539457465E-07  0.00000E+00  9.000E+00
#rwgt            1           1   4.5445252349474774E-002           5       11378           0
</event>
<event>
      5   9999  3.79277E-02  9.94314E+01 -1.00000E+00  1.23939E-01
      21    -1     0     0   512   501  0.000000000E+00  0.000000000E+00  5.889694693E+02  5.889694693E+02  0.000000000E+00  0.00000E+00  9.000E+00
      21    -1     0     0   501   502  0.000000000E+00  0.000000000E+00 -1.976694723E+02  1.976694723E+02  0.000000000E+00  0.00000E+00  9.000E+00
      25     1     1     2     0     0  5.627819396E+00 -9.766904429E+01  3.996189595E+02  4.299897991E+02  1.250000000E+02  0.00000E+00  9.000E+00
      25     1     1     2     0     0 -7.338619490E+01  2.489952942E+01 -1.322303761E+02  1.977761172E+02  1.250000000E+02  0.00000E+00  9.000E+00
      21     1     1     2   512   502  6.775837550E+01  7.276951487E+01  1.239114136E+02  1.588730253E+02  0.000000000E+00  0.00000E+00  9.000E+00
#rwgt            1           1   4.0791673575796931E-002           5       11693           0
</event>
<event>
      5   9999  3.79277E-02  1.96876E+01 -1.00000E+00  1.66935E-01
      21    -1     0     0   502   501  0.000000000E+00  0.000000000E+00  1.152969485E+02  1.152969485E+02  0.000000000E+00  0.00000E+00  9.000E+00
      21    -1     0     0   511   502  0.000000000E+00  0.000000000E+00 -1.001537561E+03  1.001537561E+03  0.000000000E+00  0.00000E+00  9.000E+00
      25     1     1     2     0     0 -4.959476195E+01  7.554466036E+01  5.004352139E+01  1.621603841E+02  1.250000000E+02  0.00000E+00  9.000E+00
      25     1     1     2     0     0  2.996329004E+01 -7.703050206E+01 -6.229017193E+02  6.406739021E+02  1.250000000E+02  0.00000E+00  9.000E+00
      21     1     1     2   511   501  1.963147191E+01  1.485841700E+00 -3.133824149E+02  3.140002235E+02  0.000000000E+00  0.00000E+00  9.000E+00
#rwgt            1           1   4.3233603681842092E-002           5       11766           0
</event>
<event>
      5   9999 -3.79277E-02  6.71067E+01 -1.00000E+00  1.32156E-01
      21    -1     0     0   502   501  0.000000000E+00  0.000000000E+00  1.115692136E+03  1.115692136E+03  0.000000000E+00  0.00000E+00  9.000E+00
      21    -1     0     0   512   502  0.000000000E+00  0.000000000E+00 -2.289451764E+02  2.289451764E+02  0.000000000E+00  0.00000E+00  9.000E+00
      25     1     1     2     0     0  3.199572731E+02  7.279039399E+01  9.152828987E+01  3.628684691E+02  1.250000000E+02  0.00000E+00  9.000E+00
      25     1     1     2     0     0 -2.642713075E+02 -1.102388045E+02  8.432326667E+02  8.992542734E+02  1.250000000E+02  0.00000E+00  9.000E+00
      21     1     1     2   512   501 -5.568596558E+01  3.744841053E+01 -4.801399739E+01  8.251456937E+01  1.348699152E-06  0.00000E+00  9.000E+00
#rwgt            1           1  -1.4664744537249048E-002           5       11941           0
</event>
<event>
      5   9999 -3.79277E-02  4.83020E+01 -1.00000E+00  1.39937E-01
      21    -1     0     0   511   501  0.000000000E+00  0.000000000E+00  2.383735221E+02  2.383735221E+02  0.000000000E+00  0.00000E+00  9.000E+00
      21    -1     0     0   501   502  0.000000000E+00  0.000000000E+00 -1.440799916E+02  1.440799916E+02  0.000000000E+00  0.00000E+00  9.000E+00
      25     1     1     2     0     0  2.719644798E+01 -1.114102455E+02  3.530023623E+01  1.732714525E+02  1.250000000E+02  0.00000E+00  9.000E+00
      25     1     1     2     0     0 -5.198361428E+01  6.995332454E+01  4.412874928E+01  1.586446037E+02  1.250000000E+02  0.00000E+00  9.000E+00
      21     1     1     2   511   502  2.478716630E+01  4.145692095E+01  1.486454507E+01  5.053745747E+01  5.591411304E-07  0.00000E+00  9.000E+00
#rwgt            1           1  -6.3161506576559751E-002           5       12069           0
</event>
<event>
      5   9999 -3.79277E-02  9.51398E+01 -1.00000E+00  1.24809E-01
      21    -1     0     0   502   512  0.000000000E+00  0.000000000E+00  2.994010738E+02  2.994010738E+02  0.000000000E+00  0.00000E+00  9.000E+00
      21    -1     0     0   501   502  0.000000000E+00  0.000000000E+00 -3.830577949E+02  3.830577949E+02  0.000000000E+00  0.00000E+00  9.000E+00
      25     1     1     2     0     0 -2.844190710E+02  2.622960523E+01 -1.586490353E+02  3.498238365E+02  1.250000000E+02  0.00000E+00  9.000E+00
      25     1     1     2     0     0  1.905777210E+02 -1.056497252E+01  6.331652353E+01  2.367814784E+02  1.250000000E+02  0.00000E+00  9.000E+00
      21     1     1     2   501   512  9.384135005E+01 -1.566463271E+01  1.167579064E+01  9.585355384E+01  2.293036468E-06  0.00000E+00  9.000E+00
#rwgt            1           1 -0.14887848264012268                5       12142           0
</event>
<event>
      5   9999  3.79277E-02  8.55617E+01 -1.00000E+00  1.26952E-01
      21    -1     0     0   502   501  0.000000000E+00  0.000000000E+00  1.639950705E+03  1.639950705E+03  0.000000000E+00  0.00000E+00  9.000E+00
      -2    -1     0     0     0   502  0.000000000E+00  0.000000000E+00 -9.998711731E+01  9.998711731E+01  0.000000000E+00  0.00000E+00  9.000E+00
      25     1     1     2     0     0 -7.568271630E+01 -1.041195389E+02  3.150986755E+02  3.626029884E+02  1.250000000E+02  0.00000E+00  9.000E+00
      25     1     1     2     0     0  3.388267816E+01  1.787758816E+02  1.264082050E+03  1.283213654E+03  1.250000000E+02  0.00000E+00  9.000E+00
      -2     1     1     2     0   501  4.180003814E+01 -7.465634273E+01 -3.921713772E+01  9.412118034E+01  8.259061849E-07  0.00000E+00  9.000E+00
#rwgt            1           1   4.9683239316106104E-002           5       12287           0
</event>
<event>
      5   9999  3.79277E-02  1.99779E+02 -1.00000E+00  1.11666E-01
      21    -1     0     0   511   501  0.000000000E+00  0.000000000E+00  4.219360420E+02  4.219360420E+02  0.000000000E+00  0.00000E+00  9.000E+00
      21    -1     0     0   501   502  0.000000000E+00  0.000000000E+00 -6.229008008E+02  6.229008008E+02  0.000000000E+00  0.00000E+00  9.000E+00
      25     1     1     2     0     0 -5.919945293E+01 -2.182615502E+02 -2.060778005E+02  3.305083046E+02  1.250000000E+02  0.00000E+00  9.000E+00
      25     1     1     2     0     0  1.438807931E+02  3.731734336E+01 -2.953658281E+02  3.534971558E+02  1.250000000E+02  0.00000E+00  9.000E+00
      21     1     1     2   511   502 -8.468134020E+01  1.809442069E+02  3.004788698E+02  3.608313824E+02  0.000000000E+00  0.00000E+00  9.000E+00
#rwgt            1           1   4.4189375429653018E-002           5       12447           0
</event>
<event>
      5   9999  4.37411E-02  3.08438E+01 -1.00000E+00  1.52208E-01
      21    -1     0     0   502   501  0.000000000E+00  0.000000000E+00  2.006042009E+02  2.006042009E+02  0.000000000E+00  0.00000E+00  9.000E+00
       2    -1     0     0   501     0  0.000000000E+00  0.000000000E+00 -5.533654275E+02  5.533654275E+02  0.000000000E+00  0.00000E+00  9.000E+00
      25     1     1     2     0     0 -7.094936141E+00 -1.862925414E+02 -4.289140839E+01  2.285167872E+02  1.250000000E+02  0.00000E+00  9.000E+00
      25     1     1     2     0     0  3.783096306E+01  1.837165224E+02 -1.171871971E+01  2.257105907E+02  1.250000000E+02  0.00000E+00  9.000E+00
       2     1     1     2   502     0 -3.073602691E+01  2.576019023E+00 -2.981510985E+02  2.997422506E+02  0.000000000E+00  0.00000E+00  9.000E+00
#rwgt            1           1  0.33096863106511992                5       12599           0
</event>
<event>
      5   9999  3.79277E-02  9.04316E+01 -1.00000E+00  1.25825E-01
      21    -1     0     0   511   501  0.000000000E+00  0.000000000E+00  7.019695294E+02  7.019695294E+02  0.000000000E+00  0.00000E+00  9.000E+00
      21    -1     0     0   501   502  0.000000000E+00  0.000000000E+00 -1.112783474E+02  1.112783474E+02  0.000000000E+00  0.00000E+00  9.000E+00
      25     1     1     2     0     0 -6.703463754E+01  3.342520821E+00  3.174258491E+02  3.476909328E+02  1.250000000E+02  0.00000E+00  9.000E+00
      25     1     1     2     0     0  1.302053745E+02  6.136713646E+01  1.420960570E+01  1.911708081E+02  1.250000000E+02  0.00000E+00  9.000E+00
      21     1     1     2   511   502 -6.317073693E+01 -6.470965728E+01  2.590557272E+02  2.743861359E+02  3.814697266E-06  0.00000E+00  9.000E+00
#rwgt            1           1   4.4039785600369995E-002           5       12759           0
</event>
<event>
      5   9999  3.79277E-02  5.40575E+01 -1.00000E+00  1.37169E-01
      21    -1     0     0   502   501  0.000000000E+00  0.000000000E+00  2.123894495E+02  2.123894495E+02  0.000000000E+00  0.00000E+00  9.000E+00
      21    -1     0     0   501   512  0.000000000E+00  0.000000000E+00 -4.708692519E+02  4.708692519E+02  0.000000000E+00  0.00000E+00  9.000E+00
      25     1     1     2     0     0 -1.551118904E+01  5.456059042E+01  1.568136209E+02  2.084057742E+02  1.250000000E+02  0.00000E+00  9.000E+00
      25     1     1     2     0     0  1.660006974E+01 -5.140370456E-01 -1.180462129E+02  1.727302375E+02  1.250000000E+02  0.00000E+00  9.000E+00
      21     1     1     2   502   512 -1.088880698E+00 -5.404655338E+01 -2.972472104E+02  3.021226898E+02  0.000000000E+00  0.00000E+00  9.000E+00
#rwgt            1           1   4.2173379981453152E-002           5       12885           0
</event>
<event>
      5   9999  3.79277E-02  1.17194E+02 -1.00000E+00  1.20806E-01
      21    -1     0     0   502   501  0.000000000E+00  0.000000000E+00  9.012187459E+02  9.012187459E+02  0.000000000E+00  0.00000E+00  9.000E+00
      21    -1     0     0   501   511  0.000000000E+00  0.000000000E+00 -1.519626901E+02  1.519626901E+02  0.000000000E+00  0.00000E+00  9.000E+00
      25     1     1     2     0     0  6.120753882E+01 -1.770429560E+02  7.583683020E+02  7.910992685E+02  1.250000000E+02  0.00000E+00  9.000E+00
      25     1     1     2     0     0 -8.378319366E+00  7.243205055E+01 -6.556902949E+00  1.448605922E+02  1.250000000E+02  0.00000E+00  9.000E+00
      21     1     1     2   502   511 -5.282921945E+01  1.046109055E+02 -2.555343205E+00  1.172215755E+02  1.475741673E-06  0.00000E+00  9.000E+00
#rwgt            1           1   3.5805467135252747E-002           5       13039           0
</event>
<event>
      5   9999  3.79277E-02  7.22558E+01 -1.00000E+00  1.30527E-01
      21    -1     0     0   502   501  0.000000000E+00  0.000000000E+00  4.314123488E+02  4.314123488E+02  0.000000000E+00  0.00000E+00  9.000E+00
      21    -1     0     0   501   512  0.000000000E+00  0.000000000E+00 -2.818318123E+02  2.818318123E+02  0.000000000E+00  0.00000E+00  9.000E+00
      25     1     1     2     0     0  2.080171489E+02  6.079254935E+01  2.892256465E+01  2.518499216E+02  1.250000000E+02  0.00000E+00  9.000E+00
      25     1     1     2     0     0 -2.635865375E+02 -1.460867834E+01  2.000620325E+02  3.540354404E+02  1.250000000E+02  0.00000E+00  9.000E+00
      21     1     1     2   502   512  5.556938865E+01 -4.618387101E+01 -7.940406059E+01  1.073587991E+02  9.536743164E-07  0.00000E+00  9.000E+00
#rwgt            1           1   3.6504041273491120E-002           5       13198           0
</event>
<event>
      5   9999  3.79277E-02  5.09214E+01 -1.00000E+00  1.38625E-01
       1    -1     0     0   502     0  0.000000000E+00  0.000000000E+00  3.788707034E+02  3.788707034E+02  0.000000000E+00  0.00000E+00  9.000E+00
      21    -1     0     0   501   502  0.000000000E+00  0.000000000E+00 -1.313368038E+02  1.313368038E+02  0.000000000E+00  0.00000E+00  9.000E+00
      25     1     1     2     0     0 -1.667703248E+00  6.655527446E+01  2.211619646E+02  2.626214013E+02  1.250000000E+02  0.00000E+00  9.000E+00
      25     1     1     2     0     0  5.588414945E+00 -1.578500695E+01 -6.582503866E+01  1.422614935E+02  1.250000000E+02  0.00000E+00  9.000E+00
       1     1     1     2   501     0 -3.920711698E+00 -5.077026751E+01  9.219697362E+01  1.053246125E+02  0.000000000E+00  0.00000E+00  9.000E+00
#rwgt            1           1   3.0830981013568393E-002           5       13261           0
</event>
<event>
      5   9999  3.79277E-02  5.89799E+01 -1.00000E+00  1.35103E-01
      21    -1     0     0   511   501  0.000000000E+00  0.000000000E+00  2.918164251E+02  2.918164251E+02  0.000000000E+00  0.00000E+00  9.000E+00
      21    -1     0     0   501   502  0.000000000E+00  0.000000000E+00 -2.173635579E+02  2.173635579E+02  0.000000000E+00  0.00000E+00  9.000E+00
      25     1     1     2     0     0  5.025713325E+01 -1.149795528E+02  1.629568323E+02  2.406782213E+02  1.250000000E+02  0.00000E+00  9.000E+00
      25     1     1     2     0     0 -7.659014837E+01  6.220453690E+01 -1.220578066E+02  2.006453672E+02  1.250000000E+02  0.00000E+00  9.000E+00
      21     1     1     2   511   502  2.633301512E+01  5.277501593E+01  3.355384156E+01  6.785639450E+01  1.719260824E-06  0.00000E+00  9.000E+00
#rwgt            1           1   4.2548624964176919E-002           5       13371           0
</event>
<event>
      5   9999  3.79277E-02  1.35302E+01 -1.00000E+00  1.81710E-01
      21    -1     0     0   502   512  0.000000000E+00  0.000000000E+00  4.804289626E+01  4.804289626E+01  0.000000000E+00  0.00000E+00  9.000E+00
      21    -1     0     0   501   502  0.000000000E+00  0.000000000E+00 -1.041739703E+03  1.041739703E+03  0.000000000E+00  0.00000E+00  9.000E+00
      25     1     1     2     0     0  1.733301007E+01  4.009570389E+01 -8.902054695E+02  8.999993759E+02  1.250000000E+02  0.00000E+00  9.000E+00
      25     1     1     2     0     0 -2.859932253E+01 -3.260336207E+01 -1.123797626E+02  1.735946759E+02  1.250000000E+02  0.00000E+00  9.000E+00
      21     1     1     2   501   512  1.126631246E+01 -7.492341821E+00  8.888424955E+00  1.618854782E+01  3.371747881E-07  0.00000E+00  9.000E+00
#rwgt            1           1   4.9495487105051292E-002           5       13458           0
</event>
<event>
      5   9999  3.79277E-02  1.15047E+02 -1.00000E+00  1.21150E-01
      21    -1     0     0   502   501  0.000000000E+00  0.000000000E+00  8.477981372E+02  8.477981372E+02  0.000000000E+00  0.00000E+00  9.000E+00
      21    -1     0     0   501   511  0.000000000E+00  0.000000000E+00 -2.978958017E+02  2.978958017E+02  0.000000000E+00  0.00000E+00  9.000E+00
      25     1     1     2     0     0 -1.324200538E+02  6.032726397E+01 -3.557813785E+01  1.951031863E+02  1.250000000E+02  0.00000E+00  9.000E+00
      25     1     1     2     0     0  1.739050066E+02  4.698004920E+01  7.320964217E+02  7.642252593E+02  1.250000000E+02  0.00000E+00  9.000E+00
      21     1     1     2   502   511 -4.148495280E+01 -1.073073132E+02 -1.466159483E+02  1.863654932E+02  1.907348633E-06  0.00000E+00  9.000E+00
#rwgt            1           1   4.8363717910832937E-002           5       13677           0
</event>
<event>
      5   9999  3.79277E-02  2.40089E+02 -1.00000E+00  1.08834E-01
      21    -1     0     0   512   501  0.000000000E+00  0.000000000E+00  9.500748365E+02  9.500748365E+02  0.000000000E+00  0.00000E+00  9.000E+00
      21    -1     0     0   501   502  0.000000000E+00  0.000000000E+00 -6.633622643E+02  6.633622643E+02  0.000000000E+00  0.00000E+00  9.000E+00
      25     1     1     2     0     0 -1.137202394E+02  1.262007151E+02 -3.471770479E+02  4.062213878E+02  1.250000000E+02  0.00000E+00  9.000E+00
      25     1     1     2     0     0  4.439098915E+01 -3.560622216E+02 -1.338162299E+02  4.028432065E+02  1.250000000E+02  0.00000E+00  9.000E+00
      21     1     1     2   512   502  6.932925028E+01  2.298615065E+02  7.677058500E+02  8.043725065E+02  1.078959322E-05  0.00000E+00  9.000E+00
#rwgt            1           1  0.14910691234182910                5       13827           0
</event>
<event>
      5   9999  3.79277E-02  3.19330E+01 -1.00000E+00  1.51180E-01
      21    -1     0     0   502   511  0.000000000E+00  0.000000000E+00  9.751006462E+02  9.751006462E+02  0.000000000E+00  0.00000E+00  9.000E+00
      21    -1     0     0   501   502  0.000000000E+00  0.000000000E+00 -8.797459451E+01  8.797459451E+01  0.000000000E+00  0.00000E+00  9.000E+00
      25     1     1     2     0     0 -1.602688300E+01 -1.009288666E+02  4.740546283E+01  1.682729182E+02  1.250000000E+02  0.00000E+00  9.000E+00
      25     1     1     2     0     0 -1.337564937E+01  1.133870537E+02  2.371011700E+02  2.913374277E+02  1.250000000E+02  0.00000E+00  9.000E+00
      21     1     1     2   501   511  2.940253237E+01 -1.245818710E+01  6.026194188E+02  6.034648948E+02  1.525878906E-05  0.00000E+00  9.000E+00
#rwgt            1           1   4.6786651028897876E-002           5       13955           0
</event>
<event>
      5   9999  3.79277E-02  7.47463E+00 -1.00000E+00  2.11604E-01
      21    -1     0     0   502   501  0.000000000E+00  0.000000000E+00  1.310786312E+02  1.310786312E+02  0.000000000E+00  0.00000E+00  9.000E+00
      21    -1     0     0   512   502  0.000000000E+00  0.000000000E+00 -3.892439948E+02  3.892439948E+02  0.000000000E+00  0.00000E+00  9.000E+00
      25     1     1     2     0     0  2.886274037E+01  1.676372576E+02 -3.974992186E+01  2.148030824E+02  1.250000000E+02  0.00000E+00  9.000E+00
      25     1     1     2     0     0 -2.502889013E+01 -1.612207393E+02 -2.057999875E+02  2.908559901E+02  1.250000000E+02  0.00000E+00  9.000E+00
      21     1     1     2   512   501 -3.833850237E+00 -6.416518210E+00 -1.261545422E+01  1.466355341E+01  1.685873940E-07  0.00000E+00  9.000E+00
#rwgt            1           1   4.7570775139376353E-002           5       14142           0
</event>
<event>
      5   9999  3.79277E-02  9.88429E+01 -1.00000E+00  1.24056E-01
      -1    -1     0     0     0   501  0.000000000E+00  0.000000000E+00  3.014857257E+02  3.014857257E+02  0.000000000E+00  0.00000E+00  9.000E+00
      21    -1     0     0   501   502  0.000000000E+00  0.000000000E+00 -3.154736706E+02  3.154736706E+02  0.000000000E+00  0.00000E+00  9.000E+00
      25     1     1     2     0     0  7.267020743E+01  1.071950163E+02 -2.122624255E+02  2.783021161E+02  1.250000000E+02  0.00000E+00  9.000E+00
      25     1     1     2     0     0  2.157541408E+01 -7.740118740E+01  4.318197006E+01  1.547453548E+02  1.250000000E+02  0.00000E+00  9.000E+00
      -1     1     1     2     0   502 -9.424562151E+01 -2.979382891E+01  1.550925106E+02  1.839119252E+02  3.303624740E-06  0.00000E+00  9.000E+00
#rwgt            1           1   3.8713570992074176E-002           5       14566           0
</event>
<event>
      5   9999  3.79277E-02  9.19767E+01 -1.00000E+00  1.25484E-01
      21    -1     0     0   502   501  0.000000000E+00  0.000000000E+00  5.794768270E+02  5.794768270E+02  0.000000000E+00  0.00000E+00  9.000E+00
      21    -1     0     0   511   502  0.000000000E+00  0.000000000E+00 -1.697852031E+02  1.697852031E+02  0.000000000E+00  0.00000E+00  9.000E+00
      25     1     1     2     0     0  6.281718758E+01  9.502609803E+01  3.941823996E+02  4.289297408E+02  1.250000000E+02  0.00000E+00  9.000E+00
      25     1     1     2     0     0 -1.533052705E+02 -1.115067441E+02  2.195549992E+01  2.281300154E+02  1.250000000E+02  0.00000E+00  9.000E+00
      21     1     1     2   511   501  9.048808290E+01  1.648064610E+01 -6.446275587E+00  9.220227389E+01  2.506231790E-06  0.00000E+00  9.000E+00
#rwgt            1           1   3.1901762385112144E-002           5       14622           0
</event>
<event>
      5   9999  3.79277E-02  3.88225E+01 -1.00000E+00  1.45650E-01
      21    -1     0     0   512   501  0.000000000E+00  0.000000000E+00  1.049093279E+03  1.049093279E+03  0.000000000E+00  0.00000E+00  9.000E+00
      21    -1     0     0   501   502  0.000000000E+00  0.000000000E+00 -2.920139140E+02  2.920139140E+02  0.000000000E+00  0.00000E+00  9.000E+00
      25     1     1     2     0     0 -6.410628247E+01  3.476685367E+01  2.385164076E+01  1.466705503E+02  1.250000000E+02  0.00000E+00  9.000E+00
      25     1     1     2     0     0  4.634163533E+01 -6.928646873E+01 -2.056889458E+02  2.547176954E+02  1.250000000E+02  0.00000E+00  9.000E+00
      21     1     1     2   512   502  1.776464714E+01  3.451961507E+01  9.389166700E+02  9.397189472E+02  1.525878906E-05  0.00000E+00  9.000E+00
#rwgt            1           1   5.1366023512010153E-002           5       14703           0
</event>
<event>
      5   9999  3.79277E-02  4.24181E+01 -1.00000E+00  1.43277E-01
      21    -1     0     0   502   501  0.000000000E+00  0.000000000E+00  8.815428276E+02  8.815428276E+02  0.000000000E+00  0.00000E+00  9.000E+00
      21    -1     0     0   511   502  0.000000000E+00  0.000000000E+00 -5.653825063E+01  5.653825063E+01  0.000000000E+00  0.00000E+00  9.000E+00
      25     1     1     2     0     0  1.029748545E+02  9.817208074E+01  3.357898872E+02  3.855144958E+02  1.250000000E+02  0.00000E+00  9.000E+00
      25     1     1     2     0     0 -1.378016698E+02 -7.395659607E+01  4.581640054E+02  4.999981342E+02  1.250000000E+02  0.00000E+00  9.000E+00
      21     1     1     2   511   501  3.482681527E+01 -2.421548467E+01  3.105068436E+01  5.256844832E+01  8.920806376E-07  0.00000E+00  9.000E+00
#rwgt            1           1   3.6755426152983828E-002           5       14875           0
</event>
<event>
      5   9999  3.79277E-02  1.26847E+01 -1.00000E+00  1.84529E-01
      21    -1     0     0   502   501  0.000000000E+00  0.000000000E+00  4.489183976E+02  4.489183976E+02  0.000000000E+00  0.00000E+00  9.000E+00
      21    -1     0     0   501   512  0.000000000E+00  0.000000000E+00 -1.820353961E+03  1.820353961E+03  0.000000000E+00  0.00000E+00  9.000E+00
      25     1     1     2     0     0  2.424792500E+01  1.383233726E+02  3.552161385E+02  4.019015082E+02  1.250000000E+02  0.00000E+00  9.000E+00
      25     1     1     2     0     0 -3.670574220E+01 -1.359351243E+02 -5.567010210E+01  1.963411057E+02  1.250000000E+02  0.00000E+00  9.000E+00
      21     1     1     2   502   512  1.245781720E+01 -2.388248263E+00 -1.670981600E+03  1.671029744E+03  3.737624730E-05  0.00000E+00  9.000E+00
#rwgt            1           1   3.6877369695104696E-002           5       14994           0
</event>
<event>
      5   9999 -3.79277E-02  5.60244E+01 -1.00000E+00  1.36314E-01
      21    -1     0     0   502   511  0.000000000E+00  0.000000000E+00  6.235825773E+02  6.235825773E+02  0.000000000E+00  0.00000E+00  9.000E+00
      21    -1     0     0   501   502  0.000000000E+00  0.000000000E+00 -4.318511001E+02  4.318511001E+02  0.000000000E+00  0.00000E+00  9.000E+00
      25     1     1     2     0     0  1.268663687E+01  1.757977983E+02 -3.553414011E+02  4.158825892E+02  1.250000000E+02  0.00000E+00  9.000E+00
      25     1     1     2     0     0  4.026027034E+01 -1.574850513E+02  1.947393815E+02  2.827911905E+02  1.250000000E+02  0.00000E+00  9.000E+00
      21     1     1     2   501   511 -5.294690720E+01 -1.831274699E+01  3.523334968E+02  3.567598978E+02  3.814697266E-06  0.00000E+00  9.000E+00
#rwgt            1           1  -4.1536517577355783E-002           5       15320           0
</event>
<event>
      5   9999  3.79277E-02  2.15904E+01 -1.00000E+00  1.63673E-01
      21    -1     0     0   512   501  0.000000000E+00  0.000000000E+00  1.554135573E+03  1.554135573E+03  0.000000000E+00  0.00000E+00  9.000E+00
      21    -1     0     0   501   502  0.000000000E+00  0.000000000E+00 -1.597318725E+01  1.597318725E+01  0.000000000E+00  0.00000E+00  9.000E+00
      25     1     1     2     0     0 -5.040452805E+01  1.182795179E+01  4.556509467E+02  4.753138985E+02  1.250000000E+02  0.00000E+00  9.000E+00
      25     1     1     2     0     0  5.784799803E+01 -3.209464901E+01  9.068866876E+02  9.178479839E+02  1.250000000E+02  0.00000E+00  9.000E+00
      21     1     1     2   512   502 -7.443469980E+00  2.026669722E+01  1.756247511E+02  1.769468776E+02  1.907348633E-06  0.00000E+00  9.000E+00
#rwgt            1           1   7.1894180651236761E-002           5       15631           0
</event>
<event>
      5   9999  3.79277E-02  1.54936E+01 -1.00000E+00  1.76069E-01
      21    -1     0     0   502   501  0.000000000E+00  0.000000000E+00  2.009953139E+02  2.009953139E+02  0.000000000E+00  0.00000E+00  9.000E+00
      21    -1     0     0   501   511  0.000000000E+00  0.000000000E+00 -1.963610640E+02  1.963610640E+02  0.000000000E+00  0.00000E+00  9.000E+00
      25     1     1     2     0     0  1.031002242E+02  3.454712836E+01 -9.310606237E+01  1.900444662E+02  1.250000000E+02  0.00000E+00  9.000E+00
      25     1     1     2     0     0 -9.041705441E+01 -2.564825019E+01  1.067860964E+02  1.893709240E+02  1.250000000E+02  0.00000E+00  9.000E+00
      21     1     1     2   502   511 -1.268316975E+01 -8.898878170E+00 -9.045784186E+00  1.794098769E+01  1.192092896E-07  0.00000E+00  9.000E+00
#rwgt            1           1   5.0635734787004012E-002           5       15804           0
</event>
<event>
      5   9999  3.79277E-02  9.11282E+01 -1.00000E+00  1.25670E-01
       1    -1     0     0   502     0  0.000000000E+00  0.000000000E+00  1.461077706E+03  1.461077706E+03  0.000000000E+00  0.00000E+00  9.000E+00
      21    -1     0     0   501   502  0.000000000E+00  0.000000000E+00 -2.493320336E+02  2.493320336E+02  0.000000000E+00  0.00000E+00  9.000E+00
      25     1     1     2     0     0 -6.661505541E+01  8.161668284E+01 -8.741321189E+01  1.853777714E+02  1.250000000E+02  0.00000E+00  9.000E+00
      25     1     1     2     0     0  1.542096476E+02 -1.067471269E+02  2.732118593E+00  2.254063641E+02  1.250000000E+02  0.00000E+00  9.000E+00
       1     1     1     2   501     0 -8.759459218E+01  2.513044410E+01  1.296426765E+03  1.299625604E+03  2.157918644E-05  0.00000E+00  9.000E+00
#rwgt            2          17   1.3728843647970348E-003           5       15986           0
</event>
<event>
      5   9999  3.79277E-02  1.67932E+02 -1.00000E+00  1.14483E-01
      21    -1     0     0   502   501  0.000000000E+00  0.000000000E+00  6.850659977E+01  6.850659977E+01  0.000000000E+00  0.00000E+00  9.000E+00
      21    -1     0     0   511   502  0.000000000E+00  0.000000000E+00 -1.922218036E+03  1.922218036E+03  0.000000000E+00  0.00000E+00  9.000E+00
      25     1     1     2     0     0  1.454796909E+02  7.084323210E+01 -1.828551784E+02  2.743066172E+02  1.250000000E+02  0.00000E+00  9.000E+00
      25     1     1     2     0     0 -1.601462999E+02  9.644680296E+01 -9.458999350E+02  9.722656583E+02  1.250000000E+02  0.00000E+00  9.000E+00
      21     1     1     2   511   501  1.466660895E+01 -1.672900351E+02 -7.249563225E+02  7.441523600E+02  1.078959322E-05  0.00000E+00  9.000E+00
#rwgt            1           1   1.6104468499490602E-002           5       16035           0
</event>
<event>
      5   9999  3.79277E-02  1.31977E+01 -1.00000E+00  1.82786E-01
      21    -1     0     0   502   501  0.000000000E+00  0.000000000E+00  4.017578405E+01  4.017578405E+01  0.000000000E+00  0.00000E+00  9.000E+00
      21    -1     0     0   512   502  0.000000000E+00  0.000000000E+00 -7.556767785E+02  7.556767785E+02  0.000000000E+00  0.00000E+00  9.000E+00
      25     1     1     2     0     0  5.142695726E+01  4.304585403E+01 -1.356004254E+02  1.962400388E+02  1.250000000E+02  0.00000E+00  9.000E+00
      25     1     1     2     0     0 -3.880275338E+01 -4.689413980E+01 -5.191003713E+02  5.373964175E+02  1.250000000E+02  0.00000E+00  9.000E+00
      21     1     1     2   512   501 -1.262420388E+01  3.848285766E+00 -6.080019771E+01  6.221610619E+01  6.743495762E-07  0.00000E+00  9.000E+00
#rwgt            1           1   4.8706676850762527E-002           5       16174           0
</event>
<event>
      5   9999  3.79277E-02  7.76610E+01 -1.00000E+00  1.28976E-01
      21    -1     0     0   511   501  0.000000000E+00  0.000000000E+00  2.180980273E+02  2.180980273E+02  0.000000000E+00  0.00000E+00  9.000E+00
      21    -1     0     0   501   502  0.000000000E+00  0.000000000E+00 -6.249861885E+02  6.249861885E+02  0.000000000E+00  0.00000E+00  9.000E+00
      25     1     1     2     0     0  2.155972466E+02 -2.223460761E+02 -1.487303986E+02  3.656031753E+02  1.250000000E+02  0.00000E+00  9.000E+00
      25     1     1     2     0     0 -1.408522879E+02  2.012647500E+02 -2.838749870E+02  3.956726865E+02  1.250000000E+02  0.00000E+00  9.000E+00
      21     1     1     2   511   502 -7.474495869E+01  2.108132617E+01  2.571722434E+01  8.180835404E+01  1.118282261E-06  0.00000E+00  9.000E+00
#rwgt            1           1   3.8559985724509610E-002           5       16415           0
</event>
<event>
      5   9999  3.79277E-02  4.73965E+01 -1.00000E+00  1.40414E-01
      21    -1     0     0   512   501  0.000000000E+00  0.000000000E+00  8.722049358E+01  8.722049358E+01  0.000000000E+00  0.00000E+00  9.000E+00
      21    -1     0     0   501   502  0.000000000E+00  0.000000000E+00 -1.069158572E+03  1.069158572E+03  0.000000000E+00  0.00000E+00  9.000E+00
      25     1     1     2     0     0 -3.019325635E+01 -2.183618576E+02 -6.395994869E+02  6.879724102E+02  1.250000000E+02  0.00000E+00  9.000E+00
      25     1     1     2     0     0 -1.282490032E+01  1.984653911E+02 -3.488506869E+02  4.205648479E+02  1.250000000E+02  0.00000E+00  9.000E+00
      21     1     1     2   512   502  4.301815667E+01  1.989646647E+01  6.512095130E+00  4.784180770E+01  2.384185791E-07  0.00000E+00  9.000E+00
#rwgt            1           1   3.8717973602457725E-002           5       16571           0
</event>
<event>
      5   9999  3.79277E-02  7.84667E+01 -1.00000E+00  1.28758E-01
      21    -1     0     0   502   501  0.000000000E+00  0.000000000E+00  4.595724491E+02  4.595724491E+02  0.000000000E+00  0.00000E+00  9.000E+00
      21    -1     0     0   501   511  0.000000000E+00  0.000000000E+00 -4.373247502E+02  4.373247502E+02  0.000000000E+00  0.00000E+00  9.000E+00
      25     1     1     2     0     0  1.250947793E+02  2.055875659E+02  3.153022542E+02  4.158791442E+02  1.250000000E+02  0.00000E+00  9.000E+00
      25     1     1     2     0     0 -1.569114234E+02 -1.338608635E+02 -8.019716766E+01  2.541584374E+02  1.250000000E+02  0.00000E+00  9.000E+00
      21     1     1     2   502   511  3.181664407E+01 -7.172670233E+01 -2.128573877E+02  2.268596178E+02  0.000000000E+00  0.00000E+00  9.000E+00
#rwgt            1           1   3.5391702096981954E-002           5       16638           0
</event>
<event>
      5   9999  3.79277E-02  9.29787E+01 -1.00000E+00  1.25267E-01
      21    -1     0     0   512   501  0.000000000E+00  0.000000000E+00  3.942633050E+03  3.942633050E+03  0.000000000E+00  0.00000E+00  9.000E+00
      21    -1     0     0   501   502  0.000000000E+00  0.000000000E+00 -4.748565414E+01  4.748565414E+01  0.000000000E+00  0.00000E+00  9.000E+00
      25     1     1     2     0     0 -7.357576975E+01 -2.780396424E+02  9.955963506E+02  1.043818246E+03  1.250000000E+02  0.00000E+00  9.000E+00
      25     1     1     2     0     0  9.959775838E+01  3.673026675E+02  1.862436460E+03  1.905026386E+03  1.250000000E+02  0.00000E+00  9.000E+00
      21     1     1     2   512   502 -2.602198863E+01 -8.926302505E+01  1.037114585E+03  1.041274072E+03  2.157918644E-05  0.00000E+00  9.000E+00
#rwgt            1           1   5.2296439306595936E-002           5       16724           0
</event>
<event>
      5   9999  3.79277E-02  1.08807E+01 -1.00000E+00  1.91613E-01
      21    -1     0     0   502   501  0.000000000E+00  0.000000000E+00  5.415040035E+02  5.415040035E+02  0.000000000E+00  0.00000E+00  9.000E+00
      21    -1     0     0   501   511  0.000000000E+00  0.000000000E+00 -3.445387939E+02  3.445387939E+02  0.000000000E+00  0.00000E+00  9.000E+00
      25     1     1     2     0     0 -1.217886758E+02  1.530474240E+01  6.004028492E+00  1.752933685E+02  1.250000000E+02  0.00000E+00  9.000E+00
      25     1     1     2     0     0  1.305704091E+02 -8.880510292E+00  4.325666186E+02  4.688991093E+02  1.250000000E+02  0.00000E+00  9.000E+00
      21     1     1     2   502   511 -8.781733332E+00 -6.424232110E+00 -2.416054375E+02  2.418503195E+02  3.814697266E-06  0.00000E+00  9.000E+00
#rwgt            1           1   1.8740030971839745E-002           5       16891           0
</event>
<event>
      5   9999 -3.79277E-02  3.25832E+01 -1.00000E+00  1.50589E-01
      21    -1     0     0   502   501  0.000000000E+00  0.000000000E+00  3.912351685E+01  3.912351685E+01  0.000000000E+00  0.00000E+00  9.000E+00
      21    -1     0     0   501   512  0.000000000E+00  0.000000000E+00 -1.321804114E+03  1.321804114E+03  0.000000000E+00  0.00000E+00  9.000E+00
      25     1     1     2     0     0  1.328644639E+02 -5.080948827E+01 -5.099772909E+02  5.440003741E+02  1.250000000E+02  0.00000E+00  9.000E+00
      25     1     1     2     0     0 -1.587391040E+02  7.061279663E+01 -5.228966229E+02  5.650045561E+02  1.250000000E+02  0.00000E+00  9.000E+00
      21     1     1     2   502   512  2.587464010E+01 -1.980330836E+01 -2.498066836E+02  2.519227009E+02  2.697398305E-06  0.00000E+00  9.000E+00
#rwgt            1           1 -0.14799861330408540                5       17166           0
</event>
<event>
      5   9999  3.79277E-02  1.24992E+01 -1.00000E+00  1.85186E-01
      21    -1     0     0   502   501  0.000000000E+00  0.000000000E+00  6.791100681E+02  6.791100681E+02  0.000000000E+00  0.00000E+00  9.000E+00
      21    -1     0     0   511   502  0.000000000E+00  0.000000000E+00 -6.279534373E+01  6.279534373E+01  0.000000000E+00  0.00000E+00  9.000E+00
      25     1     1     2     0     0 -4.413703519E+01 -1.885998879E+01  5.677855375E+02  5.833602606E+02  1.250000000E+02  0.00000E+00  9.000E+00
      25     1     1     2     0     0  5.628924149E+01  1.593514481E+01  4.108852025E+01  1.439988682E+02  1.250000000E+02  0.00000E+00  9.000E+00
      21     1     1     2   511   501 -1.215220630E+01  2.924843978E+00  7.440666627E+00  1.454628304E+01  1.192092896E-07  0.00000E+00  9.000E+00
#rwgt            1           1   4.8172329998184570E-002           5       17350           0
</event>
<event>
      5   9999 -3.79277E-02  7.54109E+01 -1.00000E+00  1.29604E-01
      21    -1     0     0   512   501  0.000000000E+00  0.000000000E+00  2.389753240E+03  2.389753240E+03  0.000000000E+00  0.00000E+00  9.000E+00
      21    -1     0     0   501   502  0.000000000E+00  0.000000000E+00 -9.737415776E+01  9.737415776E+01  0.000000000E+00  0.00000E+00  9.000E+00
      25     1     1     2     0     0 -1.928169530E+02 -1.694775529E+02  3.302050579E+02  4.365333877E+02  1.250000000E+02  0.00000E+00  9.000E+00
      25     1     1     2     0     0  1.197485826E+02  1.508278996E+02  2.604511663E+02  3.472010777E+02  1.250000000E+02  0.00000E+00  9.000E+00
      21     1     1     2   512   502  7.306837041E+01  1.864965333E+01  1.701722858E+03  1.703392933E+03  0.000000000E+00  0.00000E+00  9.000E+00
#rwgt            1           1  -2.0825215532042574E-002           5       17534           0
</event>
<event>
      5   9999  3.79277E-02  3.97585E+01 -1.00000E+00  1.45003E-01
      21    -1     0     0   502   501  0.000000000E+00  0.000000000E+00  6.901062104E+02  6.901062104E+02  0.000000000E+00  0.00000E+00  9.000E+00
      21    -1     0     0   511   502  0.000000000E+00  0.000000000E+00 -5.231930255E+02  5.231930255E+02  0.000000000E+00  0.00000E+00  9.000E+00
      25     1     1     2     0     0  1.433594043E+02 -7.142112513E+01  2.257223795E+02  3.036914364E+02  1.250000000E+02  0.00000E+00  9.000E+00
      25     1     1     2     0     0 -1.758986102E+02  9.426713126E+01  3.918689753E+02  4.571792940E+02  1.250000000E+02  0.00000E+00  9.000E+00
      21     1     1     2   511   501  3.253920593E+01 -2.284600613E+01 -4.506781698E+02  4.524285056E+02  7.629394531E-06  0.00000E+00  9.000E+00
#rwgt            1           1   3.3516862335909933E-002           5       17659           0
</event>
<event>
      5   9999  3.79277E-02  8.20181E+00 -1.00000E+00  2.06266E-01
      21    -1     0     0   512   501  0.000000000E+00  0.000000000E+00  1.713728912E+03  1.713728912E+03  0.000000000E+00  0.00000E+00  9.000E+00
      21    -1     0     0   501   502  0.000000000E+00  0.000000000E+00 -1.607137257E+02  1.607137257E+02  0.000000000E+00  0.00000E+00  9.000E+00
      25     1     1     2     0     0 -1.307469666E+02 -5.733945667E+01  1.590530960E+02  2.475994142E+02  1.250000000E+02  0.00000E+00  9.000E+00
      25     1     1     2     0     0  1.321920062E+02  6.541296964E+01 -3.616820871E+01  1.966894060E+02  1.250000000E+02  0.00000E+00  9.000E+00
      21     1     1     2   512   502 -1.445039637E+00 -8.073512968E+00  1.430130299E+03  1.430153817E+03  1.525878906E-05  0.00000E+00  9.000E+00
#rwgt            1           1   4.2598191720970346E-002           5       17911           0
</event>
<event>
      5   9999  3.79277E-02  5.50214E+01 -1.00000E+00  1.36745E-01
      21    -1     0     0   502   501  0.000000000E+00  0.000000000E+00  1.516249388E+03  1.516249388E+03  0.000000000E+00  0.00000E+00  9.000E+00
      21    -1     0     0   501   511  0.000000000E+00  0.000000000E+00 -3.415135917E+01  3.415135917E+01  0.000000000E+00  0.00000E+00  9.000E+00
      25     1     1     2     0     0 -7.629531331E+01  1.033691686E+02  4.166142898E+02  4.535401044E+02  1.250000000E+02  0.00000E+00  9.000E+00
      25     1     1     2     0     0  3.751318478E+01 -1.423985947E+02  9.431051037E+02  9.626821051E+02  1.250000000E+02  0.00000E+00  9.000E+00
      21     1     1     2   502   511  3.878212853E+01  3.902942613E+01  1.223786356E+02  1.341785380E+02  0.000000000E+00  0.00000E+00  9.000E+00
#rwgt            1           1   5.3763498736391239E-002           5       18171           0
</event>
<event>
      5   9999  3.79277E-02  1.18224E+02 -1.00000E+00  1.20644E-01
      21    -1     0     0   502   501  0.000000000E+00  0.000000000E+00  2.317994918E+02  2.317994918E+02  0.000000000E+00  0.00000E+00  9.000E+00
      21    -1     0     0   501   512  0.000000000E+00  0.000000000E+00 -3.524211329E+02  3.524211329E+02  0.000000000E+00  0.00000E+00  9.000E+00
      25     1     1     2     0     0  1.109589825E+02 -6.152997028E+01 -1.545918734E+01  1.787786887E+02  1.250000000E+02  0.00000E+00  9.000E+00
      25     1     1     2     0     0  3.789286006E+00  8.998802859E+01  8.914074439E+01  1.779979671E+02  1.250000000E+02  0.00000E+00  9.000E+00
      21     1     1     2   502   512 -1.147482685E+02 -2.845805831E+01 -1.943031982E+02  2.274439690E+02  2.697398305E-06  0.00000E+00  9.000E+00
#rwgt            1           1   1.5664782400303470E-002           5       18265           0
</event>
<event>
      5   9999  3.79277E-02  5.66046E+01 -1.00000E+00  1.36069E-01
      21    -1     0     0   502   511  0.000000000E+00  0.000000000E+00  1.187169788E+03  1.187169788E+03  0.000000000E+00  0.00000E+00  9.000E+00
      21    -1     0     0   501   502  0.000000000E+00  0.000000000E+00 -6.892379947E+01  6.892379947E+01  0.000000000E+00  0.00000E+00  9.000E+00
      25     1     1     2     0     0 -7.337055177E+01  1.585486700E+02  1.733956904E+02  2.760651809E+02  1.250000000E+02  0.00000E+00  9.000E+00
      25     1     1     2     0     0  8.424168227E+01 -1.029977622E+02  5.136734152E+02  5.451518848E+02  1.250000000E+02  0.00000E+00  9.000E+00
      21     1     1     2   501   511 -1.087113050E+01 -5.555090779E+01  4.311768826E+02  4.348765215E+02  5.394796609E-06  0.00000E+00  9.000E+00
#rwgt            1           1   3.6377970790272003E-002           5       18411           0
</event>
<event>
      5   9999  3.79277E-02  6.76412E+01 -1.00000E+00  1.31979E-01
      21    -1     0     0   502   501  0.000000000E+00  0.000000000E+00  2.005387475E+03  2.005387475E+03  0.000000000E+00  0.00000E+00  9.000E+00
      21    -1     0     0   512   502  0.000000000E+00  0.000000000E+00 -1.167806241E+02  1.167806241E+02  0.000000000E+00  0.00000E+00  9.000E+00
      25     1     1     2     0     0  1.954148068E+02  1.250076698E+02  7.495020264E+02  7.944760234E+02  1.250000000E+02  0.00000E+00  9.000E+00
      25     1     1     2     0     0 -2.203916516E+02 -1.878685232E+02  1.197491628E+03  1.238336894E+03  1.250000000E+02  0.00000E+00  9.000E+00
      21     1     1     2   512   501  2.497684486E+01  6.286085349E+01 -5.838680388E+01  8.935518199E+01  4.101908334E-06  0.00000E+00  9.000E+00
#rwgt            1           1   2.6106935213479458E-002           5       18497           0
</event>
<event>
      5   9999  3.79277E-02  6.29009E+01 -1.00000E+00  1.33617E-01
      21    -1     0     0   502   501  0.000000000E+00  0.000000000E+00  6.021088979E+02  6.021088979E+02  0.000000000E+00  0.00000E+00  9.000E+00
      21    -1     0     0   511   502  0.000000000E+00  0.000000000E+00 -2.193280471E+02  2.193280471E+02  0.000000000E+00  0.00000E+00  9.000E+00
      25     1     1     2     0     0  2.657188846E+02  6.713792859E+01  1.082482148E+02  3.200885863E+02  1.250000000E+02  0.00000E+00  9.000E+00
      25     1     1     2     0     0 -2.517014544E+02 -5.818833744E+00  3.183522448E+02  4.246888658E+02  1.250000000E+02  0.00000E+00  9.000E+00
      21     1     1     2   511   501 -1.401743020E+01 -6.131909484E+01 -4.381960881E+01  7.665949294E+01  2.185142372E-06  0.00000E+00  9.000E+00
#rwgt            1           1   3.3187678229154950E-002           5       18654           0
</event>
<event>
      5   9999  3.79277E-02  1.28416E+02 -1.00000E+00  1.19132E-01
      21    -1     0     0   502   501  0.000000000E+00  0.000000000E+00  8.190247770E+01  8.190247770E+01  0.000000000E+00  0.00000E+00  9.000E+00
      21    -1     0     0   501   512  0.000000000E+00  0.000000000E+00 -1.680350957E+03  1.680350957E+03  0.000000000E+00  0.00000E+00  9.000E+00
      25     1     1     2     0     0  2.061951185E+02  4.469901329E+01 -6.119091532E+02  6.592209345E+02  1.250000000E+02  0.00000E+00  9.000E+00
      25     1     1     2     0     0 -1.782708025E+02 -1.700423085E+02 -3.135104204E+02  4.178619981E+02  1.250000000E+02  0.00000E+00  9.000E+00
      21     1     1     2   502   512 -2.792431600E+01  1.253432953E+02 -6.730289055E+02  6.851705019E+02  7.629394531E-06  0.00000E+00  9.000E+00
#rwgt            1           1   3.6175202611292832E-002           5       18841           0
</event>
<event>
      5   9999  3.79277E-02  2.54986E+02 -1.00000E+00  1.07938E-01
      21    -1     0     0   502   501  0.000000000E+00  0.000000000E+00  3.602855815E+02  3.602855815E+02  0.000000000E+00  0.00000E+00  9.000E+00
      21    -1     0     0   501   511  0.000000000E+00  0.000000000E+00 -6.130341091E+02  6.130341091E+02  0.000000000E+00  0.00000E+00  9.000E+00
      25     1     1     2     0     0 -2.192185491E+02  2.607753892E+02 -8.092519369E+01  3.717989549E+02  1.250000000E+02  0.00000E+00  9.000E+00
      25     1     1     2     0     0  1.839440787E+01 -1.036527785E+02  1.282523330E+02  2.077400145E+02  1.250000000E+02  0.00000E+00  9.000E+00
      21     1     1     2   502   511  2.008241413E+02 -1.571226107E+02 -3.000756669E+02  3.937807212E+02  8.529922400E-06  0.00000E+00  9.000E+00
#rwgt            1           1   2.3281859163591535E-002           5       19032           0
</event>
<event>
      5   9999  3.79277E-02  6.28024E+01 -1.00000E+00  1.33652E-01
      21    -1     0     0   502   501  0.000000000E+00  0.000000000E+00  8.175875492E+02  8.175875492E+02  0.000000000E+00  0.00000E+00  9.000E+00
      21    -1     0     0   501   512  0.000000000E+00  0.000000000E+00 -1.996318989E+02  1.996318989E+02  0.000000000E+00  0.00000E+00  9.000E+00
      25     1     1     2     0     0 -1.968152607E+02 -9.145869200E+01  6.430706562E+02  6.901201404E+02  1.250000000E+02  0.00000E+00  9.000E+00
      25     1     1     2     0     0  1.552818223E+02  4.435126396E+01  6.760153745E+01  2.151149619E+02  1.250000000E+02  0.00000E+00  9.000E+00
      21     1     1     2   502   512  4.153343844E+01  4.710742804E+01 -9.271654345E+01  1.119843458E+02  1.907348633E-06  0.00000E+00  9.000E+00
#rwgt            1           1   2.4048601147421161E-002           5       19134           0
</event>
<event>
      5   9999 -3.79277E-02  3.74755E+01 -1.00000E+00  1.46618E-01
      21    -1     0     0   502   501  0.000000000E+00  0.000000000E+00  1.325096163E+02  1.325096163E+02  0.000000000E+00  0.00000E+00  9.000E+00
      21    -1     0     0   501   511  0.000000000E+00  0.000000000E+00 -9.665867031E+02  9.665867031E+02  0.000000000E+00  0.00000E+00  9.000E+00
      25     1     1     2     0     0  1.362159263E+02  1.270949417E+02 -2.368205087E+01  2.255964147E+02  1.250000000E+02  0.00000E+00  9.000E+00
      25     1     1     2     0     0 -1.655877970E+02 -1.503695127E+02 -5.097317125E+02  5.705100591E+02  1.250000000E+02  0.00000E+00  9.000E+00
      21     1     1     2   502   511  2.937187069E+01  2.327457101E+01 -3.006633235E+02  3.029898456E+02  5.394796609E-06  0.00000E+00  9.000E+00
#rwgt            1           1 -0.10580587274056345                5       19281           0
</event>
<event>
      5   9999  3.79277E-02  8.26417E+01 -1.00000E+00  1.27670E-01
      21    -1     0     0   512   501  0.000000000E+00  0.000000000E+00  2.131350389E+02  2.131350389E+02  0.000000000E+00  0.00000E+00  9.000E+00
      21    -1     0     0   501   502  0.000000000E+00  0.000000000E+00 -2.865666158E+02  2.865666158E+02  0.000000000E+00  0.00000E+00  9.000E+00
      25     1     1     2     0     0  8.128815969E+01 -1.480656394E+02  6.225341484E+01  2.191613244E+02  1.250000000E+02  0.00000E+00  9.000E+00
      25     1     1     2     0     0 -3.874032799E+01  7.721834220E+01 -1.258825079E+02  1.973192621E+02  1.250000000E+02  0.00000E+00  9.000E+00
      21     1     1     2   512   502 -4.254783170E+01  7.084729719E+01 -9.802483832E+00  8.322106819E+01  6.529361695E-07  0.00000E+00  9.000E+00
#rwgt            1           1   4.1642664101801091E-002           5       19440           0
</event>
<event>
      5   9999  3.79277E-02  1.36099E+01 -1.00000E+00  1.81457E-01
      21    -1     0     0   502   511  0.000000000E+00  0.000000000E+00  7.867129147E+01  7.867129147E+01  0.000000000E+00  0.00000E+00  9.000E+00
      21    -1     0     0   501   502  0.000000000E+00  0.000000000E+00 -5.970240375E+02  5.970240375E+02  0.000000000E+00  0.00000E+00  9.000E+00
      25     1     1     2     0     0  9.635195885E+01  1.224700458E+02 -1.953452802E+02  2.794054233E+02  1.250000000E+02  0.00000E+00  9.000E+00
      25     1     1     2     0     0 -9.397540909E+01 -1.090692034E+02 -3.299005546E+02  3.810339153E+02  1.250000000E+02  0.00000E+00  9.000E+00
      21     1     1     2   501   511 -2.376549760E+00 -1.340084245E+01  6.893088848E+00  1.525599033E+01  2.384185791E-07  0.00000E+00  9.000E+00
#rwgt            1           1   3.9813464618713081E-002           5       19536           0
</event>
<event>
      5   9999  3.79277E-02  7.85539E+01 -1.00000E+00  1.28734E-01
      21    -1     0     0   502   501  0.000000000E+00  0.000000000E+00  2.067842734E+02  2.067842734E+02  0.000000000E+00  0.00000E+00  9.000E+00
      21    -1     0     0   501   512  0.000000000E+00  0.000000000E+00 -8.503032727E+02  8.503032727E+02  0.000000000E+00  0.00000E+00  9.000E+00
      25     1     1     2     0     0  1.945407300E+02 -2.846584113E+02 -3.453189102E+02  5.037327233E+02  1.250000000E+02  0.00000E+00  9.000E+00
      25     1     1     2     0     0 -2.653077151E+02  2.505593382E+02 -2.284975293E+02  4.483350160E+02  1.250000000E+02  0.00000E+00  9.000E+00
      21     1     1     2   502   512  7.076698510E+01  3.409907306E+01 -6.970255986E+01  1.050198068E+02  1.907348633E-06  0.00000E+00  9.000E+00
#rwgt            1           1   2.7577835462221881E-002           5       19841           0
</event>
<event>
      5   9999  3.79277E-02  1.47786E+01 -1.00000E+00  1.77994E-01
      21    -1     0     0   511   501  0.000000000E+00  0.000000000E+00  5.453790613E+01  5.453790613E+01  0.000000000E+00  0.00000E+00  9.000E+00
      21    -1     0     0   501   502  0.000000000E+00  0.000000000E+00 -1.203665265E+03  1.203665265E+03  0.000000000E+00  0.00000E+00  9.000E+00
      25     1     1     2     0     0 -1.899770662E+02  1.105234667E+02 -6.163676792E+02  6.662138083E+02  1.250000000E+02  0.00000E+00  9.000E+00
      25     1     1     2     0     0  1.774175654E+02 -1.027345532E+02 -5.187419515E+02  5.716201476E+02  1.250000000E+02  0.00000E+00  9.000E+00
      21     1     1     2   511   502  1.255950078E+01 -7.788913425E+00 -1.401772865E+01  2.036921571E+01  2.384185791E-07  0.00000E+00  9.000E+00
#rwgt            1           1   3.9602241430890715E-002           5       20000           0
</event>
<event>
      5   9999  3.79277E-02  2.04263E+02 -1.00000E+00  1.11316E-01
      21    -1     0     0   502   512  0.000000000E+00  0.000000000E+00  2.871101224E+02  2.871101224E+02  0.000000000E+00  0.00000E+00  9.000E+00
      21    -1     0     0   501   502  0.000000000E+00  0.000000000E+00 -1.566626893E+03  1.566626893E+03  0.000000000E+00  0.00000E+00  9.000E+00
      25     1     1     2     0     0  2.513522461E+02 -8.505477398E+00 -6.193386408E+02  6.800409155E+02  1.250000000E+02  0.00000E+00  9.000E+00
      25     1     1     2     0     0 -6.714233339E+01  9.676699079E+01 -8.665049092E+02  8.833615913E+02  1.250000000E+02  0.00000E+00  9.000E+00
      21     1     1     2   501   512 -1.842099127E+02 -8.826151340E+01  2.063267796E+02  2.903345082E+02  3.814697266E-06  0.00000E+00  9.000E+00
#rwgt            1           1  0.10083168721871126                5       20222           0
</event>
<event>
      5   9999  3.79277E-02  8.27357E+00 -1.00000E+00  2.05779E-01
      21    -1     0     0   502   501  0.000000000E+00  0.000000000E+00  2.669815981E+02  2.669815981E+02  0.000000000E+00  0.00000E+00  9.000E+00
       2    -1     0     0   501     0  0.000000000E+00  0.000000000E+00 -1.068235306E+03  1.068235306E+03  0.000000000E+00  0.00000E+00  9.000E+00
      25     1     1     2     0     0 -4.721933369E+01  1.757073023E+02 -9.129178713E+00  2.209322599E+02  1.250000000E+02  0.00000E+00  9.000E+00
      25     1     1     2     0     0  5.183332409E+01 -1.688397703E+02  8.838835692E+01  2.337328885E+02  1.250000000E+02  0.00000E+00  9.000E+00
       2     1     1     2   502     0 -4.613990406E+00 -6.867531990E+00 -8.805128865E+02  8.805517561E+02  0.000000000E+00  0.00000E+00  9.000E+00
#rwgt            1           1   4.1886146570845710E-002           5       20262           0
</event>
<event>
      5   9999  3.79277E-02  2.31561E+02 -1.00000E+00  1.09379E-01
      21    -1     0     0   502   501  0.000000000E+00  0.000000000E+00  1.233800108E+02  1.233800108E+02  0.000000000E+00  0.00000E+00  9.000E+00
       2    -1     0     0   501     0  0.000000000E+00  0.000000000E+00 -3.412458132E+03  3.412458132E+03  0.000000000E+00  0.00000E+00  9.000E+00
      25     1     1     2     0     0 -2.462427311E+02  1.709156140E+02 -3.246609241E+02  4.592138341E+02  1.250000000E+02  0.00000E+00  9.000E+00
      25     1     1     2     0     0  1.807092203E+01 -2.103896515E+02 -2.429093005E+02  3.452829158E+02  1.250000000E+02  0.00000E+00  9.000E+00
       2     1     1     2   502     0  2.281718091E+02  3.947403744E+01 -2.721507897E+03  2.731341393E+03  5.285799584E-05  0.00000E+00  9.000E+00
#rwgt            1           1   3.9079108915801464E-002           5       20583           0
</event>
<event>
      5   9999  3.79277E-02  3.96888E+01 -1.00000E+00  1.45051E-01
      21    -1     0     0   502   501  0.000000000E+00  0.000000000E+00  6.523548598E+01  6.523548598E+01  0.000000000E+00  0.00000E+00  9.000E+00
      21    -1     0     0   501   511  0.000000000E+00  0.000000000E+00 -9.157231276E+02  9.157231276E+02  0.000000000E+00  0.00000E+00  9.000E+00
      25     1     1     2     0     0  3.331306896E+01 -9.683228647E+01 -4.462013788E+02  4.745597146E+02  1.250000000E+02  0.00000E+00  9.000E+00
      25     1     1     2     0     0 -3.082509085E+01  5.722156951E+01 -4.939643941E+01  1.492966928E+02  1.250000000E+02  0.00000E+00  9.000E+00
      21     1     1     2   502   511 -2.487978112E+00  3.961071696E+01 -3.548898234E+02  3.571022062E+02  5.394796609E-06  0.00000E+00  9.000E+00
#rwgt            1           1   3.9288841852899062E-002           5       20626           0
</event>
<event>
      5   9999  3.79277E-02  4.66855E+00 -1.00000E+00  2.48596E-01
      21    -1     0     0   502   501  0.000000000E+00  0.000000000E+00  3.777687545E+02  3.777687545E+02  0.000000000E+00  0.00000E+00  9.000E+00
      21    -1     0     0   501   512  0.000000000E+00  0.000000000E+00 -1.479483559E+02  1.479483559E+02  0.000000000E+00  0.00000E+00  9.000E+00
      25     1     1     2     0     0 -1.682741031E+02  9.794930421E+01  1.662386649E+02  2.849044290E+02  1.250000000E+02  0.00000E+00  9.000E+00
      25     1     1     2     0     0  1.639107961E+02 -9.628890830E+01  6.137255833E+01  2.356478174E+02  1.250000000E+02  0.00000E+00  9.000E+00
      21     1     1     2   502   512  4.363307088E+00 -1.660395910E+00  2.209175432E+00  5.164863929E+00  6.664001875E-08  0.00000E+00  9.000E+00
#rwgt            1           1   3.9082254069251803E-002           5       20743           0
</event>
<event>
      5   9999  3.79277E-02  5.17528E+01 -1.00000E+00  1.38227E-01
      21    -1     0     0   502   501  0.000000000E+00  0.000000000E+00  4.619849535E+02  4.619849535E+02  0.000000000E+00  0.00000E+00  9.000E+00
      21    -1     0     0   501   511  0.000000000E+00  0.000000000E+00 -6.198807178E+02  6.198807178E+02  0.000000000E+00  0.00000E+00  9.000E+00
      25     1     1     2     0     0  7.875933986E+01 -1.457701288E+02  3.311553438E+02  3.908207080E+02  1.250000000E+02  0.00000E+00  9.000E+00
      25     1     1     2     0     0 -2.721299302E+01  1.411525394E+02  8.617138262E+00  1.906930556E+02  1.250000000E+02  0.00000E+00  9.000E+00
      21     1     1     2   502   511 -5.154634684E+01  4.617589446E+00 -4.976682464E+02  5.003519077E+02  0.000000000E+00  0.00000E+00  9.000E+00
#rwgt            1           1   3.7464783852567754E-002           5       21127           0
</event>
<event>
      5   9999  3.79277E-02  3.07317E+01 -1.00000E+00  1.52317E-01
      21    -1     0     0   502   501  0.000000000E+00  0.000000000E+00  8.732671389E+02  8.732671389E+02  0.000000000E+00  0.00000E+00  9.000E+00
      21    -1     0     0   501   512  0.000000000E+00  0.000000000E+00 -2.995526656E+02  2.995526656E+02  0.000000000E+00  0.00000E+00  9.000E+00
      25     1     1     2     0     0 -1.965657290E+01  1.248725526E+02  3.262445668E+02  3.715374175E+02  1.250000000E+02  0.00000E+00  9.000E+00
      25     1     1     2     0     0  3.032443442E+01 -9.605187027E+01  5.111765949E+02  5.357910454E+02  1.250000000E+02  0.00000E+00  9.000E+00
      21     1     1     2   502   512 -1.066786152E+01 -2.882068229E+01 -2.637066884E+02  2.654913417E+02  5.394796609E-06  0.00000E+00  9.000E+00
#rwgt            1           1   4.6136933029071937E-002           5       21223           0
</event>
<event>
      5   9999  3.79277E-02  6.11363E+01 -1.00000E+00  1.34269E-01
      21    -1     0     0   502   501  0.000000000E+00  0.000000000E+00  7.431688401E+02  7.431688401E+02  0.000000000E+00  0.00000E+00  9.000E+00
      21    -1     0     0   501   511  0.000000000E+00  0.000000000E+00 -6.576061821E+01  6.576061821E+01  0.000000000E+00  0.00000E+00  9.000E+00
      25     1     1     2     0     0  2.941724352E+01 -1.581939564E+01  5.577652096E+02  5.725754592E+02  1.250000000E+02  0.00000E+00  9.000E+00
      25     1     1     2     0     0  3.165898579E+01  1.852990856E+01  4.065011305E+01  1.364664083E+02  1.250000000E+02  0.00000E+00  9.000E+00
      21     1     1     2   502   511 -6.107622931E+01 -2.710512924E+00  7.899289929E+01  9.988759085E+01  0.000000000E+00  0.00000E+00  9.000E+00
#rwgt            1           1   4.6605381745794754E-002           5       21407           0
</event>
<event>
      5   9999 -3.79277E-02  1.48280E+01 -1.00000E+00  1.77857E-01
      21    -1     0     0   502   512  0.000000000E+00  0.000000000E+00  2.376228250E+02  2.376228250E+02  0.000000000E+00  0.00000E+00  9.000E+00
      21    -1     0     0   501   502  0.000000000E+00  0.000000000E+00 -2.086130718E+02  2.086130718E+02  0.000000000E+00  0.00000E+00  9.000E+00
      25     1     1     2     0     0  9.551733438E+01 -1.440698952E+02 -5.816576273E+00  2.133975830E+02  1.250000000E+02  0.00000E+00  9.000E+00
      25     1     1     2     0     0 -8.370459813E+01  1.530325010E+02  2.765824818E+01  2.163686317E+02  1.250000000E+02  0.00000E+00  9.000E+00
      21     1     1     2   501   512 -1.181273625E+01 -8.962605840E+00  7.168081266E+00  1.646968215E+01  2.230201594E-07  0.00000E+00  9.000E+00
#rwgt            1           1  -8.3596761770000527E-002           5       21529           0
</event>
<event>
      5   9999  3.79277E-02  4.22629E+01 -1.00000E+00  1.43373E-01
      21    -1     0     0   502   501  0.000000000E+00  0.000000000E+00  1.887550106E+02  1.887550106E+02  0.000000000E+00  0.00000E+00  9.000E+00
      21    -1     0     0   501   511  0.000000000E+00  0.000000000E+00 -7.932151865E+02  7.932151865E+02  0.000000000E+00  0.00000E+00  9.000E+00
      25     1     1     2     0     0 -8.039329226E+00  5.192678027E+01 -1.957308698E+02  2.381104675E+02  1.250000000E+02  0.00000E+00  9.000E+00
      25     1     1     2     0     0 -8.593959572E+00 -1.307462303E+01  1.429651924E+02  1.905488078E+02  1.250000000E+02  0.00000E+00  9.000E+00
      21     1     1     2   502   511  1.663328880E+01 -3.885215723E+01 -5.516944985E+02  5.533109217E+02  7.629394531E-06  0.00000E+00  9.000E+00
#rwgt            1           1   3.9008181594513795E-002           5       21733           0
</event>
<event>
      5   9999  3.79277E-02  1.76020E+01 -1.00000E+00  1.71080E-01
      21    -1     0     0   512   501  0.000000000E+00  0.000000000E+00  3.765840070E+02  3.765840070E+02  0.000000000E+00  0.00000E+00  9.000E+00
      21    -1     0     0   501   502  0.000000000E+00  0.000000000E+00 -1.124373072E+02  1.124373072E+02  0.000000000E+00  0.00000E+00  9.000E+00
      25     1     1     2     0     0 -7.424791373E+00  4.819345743E+01 -4.485640978E+01  1.414737939E+02  1.250000000E+02  0.00000E+00  9.000E+00
      25     1     1     2     0     0 -6.297711501E+00 -3.716972213E+01  2.121365755E+02  2.490947130E+02  1.250000000E+02  0.00000E+00  9.000E+00
      21     1     1     2   512   502  1.372250287E+01 -1.102373530E+01  9.686653412E+01  9.845280726E+01  1.907348633E-06  0.00000E+00  9.000E+00
#rwgt            1           1   3.6338681133870641E-002           5       21891           0
</event>
<event>
      5   9999  3.79277E-02  3.31713E+01 -1.00000E+00  1.50069E-01
      21    -1     0     0   511   501  0.000000000E+00  0.000000000E+00  1.950917673E+02  1.950917673E+02  0.000000000E+00  0.00000E+00  9.000E+00
      21    -1     0     0   501   502  0.000000000E+00  0.000000000E+00 -2.278574130E+02  2.278574130E+02  0.000000000E+00  0.00000E+00  9.000E+00
      25     1     1     2     0     0  2.143491287E+01 -1.103024186E+02 -9.095542683E+01  1.911124504E+02  1.250000000E+02  0.00000E+00  9.000E+00
      25     1     1     2     0     0 -1.829265233E+01  1.433246010E+02  5.293679514E+01  1.982520281E+02  1.250000000E+02  0.00000E+00  9.000E+00
      21     1     1     2   511   502 -3.142260542E+00 -3.302218240E+01  5.252985956E+00  3.358470177E+01  8.534086384E-07  0.00000E+00  9.000E+00
#rwgt            1           1   3.9650379749780799E-002           5       22069           0
</event>
<event>
      5   9999  3.79277E-02  5.79052E+00 -1.00000E+00  2.27896E-01
      21    -1     0     0   502   501  0.000000000E+00  0.000000000E+00  1.221092142E+02  1.221092142E+02  0.000000000E+00  0.00000E+00  9.000E+00
      21    -1     0     0   512   502  0.000000000E+00  0.000000000E+00 -3.027522595E+02  3.027522595E+02  0.000000000E+00  0.00000E+00  9.000E+00
      25     1     1     2     0     0  9.976099941E+01  7.313459037E+01 -8.553881527E+01  1.955577005E+02  1.250000000E+02  0.00000E+00  9.000E+00
      25     1     1     2     0     0 -9.417276921E+01 -7.465177162E+01 -4.537058992E+01  1.792341706E+02  1.250000000E+02  0.00000E+00  9.000E+00
      21     1     1     2   512   501 -5.588230194E+00  1.517181254E+00 -4.973364005E+01  5.006960264E+01  9.536743164E-07  0.00000E+00  9.000E+00
#rwgt            1           1   3.8918745907312896E-002           5       22226           0
</event>
<event>
      5   9999  3.79277E-02  3.80384E+01 -1.00000E+00  1.46208E-01
      21    -1     0     0   511   501  0.000000000E+00  0.000000000E+00  1.075751703E+03  1.075751703E+03  0.000000000E+00  0.00000E+00  9.000E+00
      21    -1     0     0   501   502  0.000000000E+00  0.000000000E+00 -9.540784685E+01  9.540784685E+01  0.000000000E+00  0.00000E+00  9.000E+00
      25     1     1     2     0     0 -1.340376132E+02  9.004382799E+01  4.500932734E+02  4.942498634E+02  1.250000000E+02  0.00000E+00  9.000E+00
      25     1     1     2     0     0  1.532019184E+02 -5.718580217E+01  7.347225012E+01  2.185502581E+02  1.250000000E+02  0.00000E+00  9.000E+00
      21     1     1     2   511   502 -1.916430519E+01 -3.285802581E+01  4.567783326E+02  4.583594284E+02  1.078959322E-05  0.00000E+00  9.000E+00
#rwgt            1           1   4.5754669839273426E-002           5       22644           0
</event>
<event>
      5   9999  3.79277E-02  4.44844E+01 -1.00000E+00  1.42035E-01
      21    -1     0     0   502   501  0.000000000E+00  0.000000000E+00  1.094105548E+03  1.094105548E+03  0.000000000E+00  0.00000E+00  9.000E+00
      21    -1     0     0   512   502  0.000000000E+00  0.000000000E+00 -6.095524667E+01  6.095524667E+01  0.000000000E+00  0.00000E+00  9.000E+00
      25     1     1     2     0     0 -1.798555440E+01  1.541664181E+02  8.336183771E+02  8.571087231E+02  1.250000000E+02  0.00000E+00  9.000E+00
      25     1     1     2     0     0 -1.152142496E+01 -1.208767698E+02  1.394433790E+02  2.231891410E+02  1.250000000E+02  0.00000E+00  9.000E+00
      21     1     1     2   512   501  2.950697936E+01 -3.328964823E+01  6.008854521E+01  7.476293049E+01  9.536743164E-07  0.00000E+00  9.000E+00
#rwgt            1           1   3.9391983810356364E-002           5       22893           0
</event>
<event>
      5   9999  3.79277E-02  6.67069E+01 -1.00000E+00  1.32289E-01
      21    -1     0     0   502   511  0.000000000E+00  0.000000000E+00  2.042190811E+02  2.042190811E+02  0.000000000E+00  0.00000E+00  9.000E+00
      21    -1     0     0   501   502  0.000000000E+00  0.000000000E+00 -5.141172570E+02  5.141172570E+02  0.000000000E+00  0.00000E+00  9.000E+00
      25     1     1     2     0     0  1.876300027E+02 -6.760522105E+01 -2.638601874E+02  3.535854668E+02  1.250000000E+02  0.00000E+00  9.000E+00
      25     1     1     2     0     0 -1.828952416E+02  1.066575015E+00 -1.305082185E+02  2.571170980E+02  1.250000000E+02  0.00000E+00  9.000E+00
      21     1     1     2   501   511 -4.734761038E+00  6.653864603E+01  8.447023009E+01  1.076337733E+02  2.523185073E-06  0.00000E+00  9.000E+00
#rwgt            1           1   3.8318979902283466E-002           5       22980           0
</event>
<event>
      5   9999  3.79277E-02  9.69720E+01 -1.00000E+00  1.24432E-01
      21    -1     0     0   512   501  0.000000000E+00  0.000000000E+00  2.840083655E+02  2.840083655E+02  0.000000000E+00  0.00000E+00  9.000E+00
      21    -1     0     0   501   502  0.000000000E+00  0.000000000E+00 -3.106833058E+02  3.106833058E+02  0.000000000E+00  0.00000E+00  9.000E+00
      25     1     1     2     0     0  2.158404001E+01 -1.716613204E+02  1.558694398E+02  2.642986227E+02  1.250000000E+02  0.00000E+00  9.000E+00
      25     1     1     2     0     0  3.046503429E-01  7.719202755E+01 -1.813792508E+02  2.334140839E+02  1.250000000E+02  0.00000E+00  9.000E+00
      21     1     1     2   512   502 -2.188869036E+01  9.446929283E+01 -1.165129288E+00  9.697896463E+01  1.104898746E-06  0.00000E+00  9.000E+00
#rwgt            1           1   4.4632063454448846E-002           5       23050           0
</event>
<event>
      5   9999  3.79277E-02  9.29292E+01 -1.00000E+00  1.25277E-01
      21    -1     0     0   502   501  0.000000000E+00  0.000000000E+00  4.705291305E+02  4.705291305E+02  0.000000000E+00  0.00000E+00  9.000E+00
      21    -1     0     0   511   502  0.000000000E+00  0.000000000E+00 -1.041035216E+03  1.041035216E+03  0.000000000E+00  0.00000E+00  9.000E+00
      25     1     1     2     0     0 -4.156202696E+02  1.002976811E+02 -5.374011080E+02  6.980148882E+02  1.250000000E+02  0.00000E+00  9.000E+00
      25     1     1     2     0     0  4.658508338E+02 -2.211379645E+01  2.297790035E+02  5.347236761E+02  1.250000000E+02  0.00000E+00  9.000E+00
      21     1     1     2   511   501 -5.023056420E+01 -7.818388460E+01 -2.628839813E+02  2.788257825E+02  3.814697266E-06  0.00000E+00  9.000E+00
#rwgt            1           1   4.5320682442784636E-002           5       23114           0
</event>
<event>
      5   9999  3.79277E-02  5.64553E+01 -1.00000E+00  1.36132E-01
      21    -1     0     0   502   501  0.000000000E+00  0.000000000E+00  2.919877956E+01  2.919877956E+01  0.000000000E+00  0.00000E+00  9.000E+00
      21    -1     0     0   512   502  0.000000000E+00  0.000000000E+00 -1.621898044E+03  1.621898044E+03  0.000000000E+00  0.00000E+00  9.000E+00
      25     1     1     2     0     0  1.416296904E+01  5.650601912E+01 -1.013405417E+03  1.022745843E+03  1.250000000E+02  0.00000E+00  9.000E+00
      25     1     1     2     0     0 -7.047459210E+01 -6.053152322E+01 -2.521402627E+02  2.963620177E+02  1.250000000E+02  0.00000E+00  9.000E+00
      21     1     1     2   512   501  5.631162305E+01  4.025504107E+00 -3.271535845E+02  3.319889628E+02  6.607249480E-06  0.00000E+00  9.000E+00
#rwgt            1           1   3.3082758200495506E-002           5       23203           0
</event>
<event>
      5   9999  3.79277E-02  6.52673E+01 -1.00000E+00  1.32779E-01
      21    -1     0     0   502   501  0.000000000E+00  0.000000000E+00  5.293005140E+02  5.293005140E+02  0.000000000E+00  0.00000E+00  9.000E+00
       2    -1     0     0   501     0  0.000000000E+00  0.000000000E+00 -6.818583991E+02  6.818583991E+02  0.000000000E+00  0.00000E+00  9.000E+00
      25     1     1     2     0     0 -7.740691955E+01 -2.030310443E+02  2.404286150E+02  3.473389628E+02  1.250000000E+02  0.00000E+00  9.000E+00
      25     1     1     2     0     0  3.317504686E+01  1.550376364E+02  1.899707888E+02  2.772204051E+02  1.250000000E+02  0.00000E+00  9.000E+00
       2     1     1     2   502     0  4.423187269E+01  4.799340787E+01 -5.829572888E+02  5.865995451E+02  1.321449896E-05  0.00000E+00  9.000E+00
#rwgt            1           1   3.6757127964739462E-002           5       23279           0
</event>
<event>
      5   9999 -3.79277E-02  1.34028E+02 -1.00000E+00  1.18365E-01
       2    -1     0     0   502     0  0.000000000E+00  0.000000000E+00  1.091680468E+03  1.091680468E+03  0.000000000E+00  0.00000E+00  9.000E+00
      21    -1     0     0   501   502  0.000000000E+00  0.000000000E+00 -1.024764005E+02  1.024764005E+02  0.000000000E+00  0.00000E+00  9.000E+00
      25     1     1     2     0     0 -1.161798201E+02 -7.343838594E+01  1.656453377E+02  2.489062575E+02  1.250000000E+02  0.00000E+00  9.000E+00
      25     1     1     2     0     0  2.030882712E+02 -2.859369698E+01  2.157997337E+02  3.228884799E+02  1.250000000E+02  0.00000E+00  9.000E+00
       2     1     1     2   501     0 -8.690845106E+01  1.020320829E+02  6.077589957E+02  6.223621306E+02  0.000000000E+00  0.00000E+00  9.000E+00
#rwgt            1           1  -6.7421937546766245E-002           5       23401           0
</event>
<event>
      5   9999 -3.79277E-02  8.19861E+00 -1.00000E+00  2.06288E-01
      21    -1     0     0   502   511  0.000000000E+00  0.000000000E+00  1.063686020E+02  1.063686020E+02  0.000000000E+00  0.00000E+00  9.000E+00
      21    -1     0     0   501   502  0.000000000E+00  0.000000000E+00 -4.924035276E+02  4.924035276E+02  0.000000000E+00  0.00000E+00  9.000E+00
      25     1     1     2     0     0  8.858752804E+01  1.504725407E+02 -1.399584667E+02  2.563261751E+02  1.250000000E+02  0.00000E+00  9.000E+00
      25     1     1     2     0     0 -8.088158612E+01 -1.532717645E+02 -2.533897426E+02  3.314595396E+02  1.250000000E+02  0.00000E+00  9.000E+00
      21     1     1     2   501   511 -7.705941920E+00  2.799223788E+00  7.313283621E+00  1.098641488E+01  2.230201594E-07  0.00000E+00  9.000E+00
#rwgt            1           1  -9.1714630503411027E-002           5       23447           0
</event>
<event>
      5   9999  3.79277E-02  9.08172E+01 -1.00000E+00  1.25739E-01
      21    -1     0     0   512   501  0.000000000E+00  0.000000000E+00  1.131551360E+02  1.131551360E+02  0.000000000E+00  0.00000E+00  9.000E+00
      21    -1     0     0   501   502  0.000000000E+00  0.000000000E+00 -9.480650433E+02  9.480650433E+02  0.000000000E+00  0.00000E+00  9.000E+00
      25     1     1     2     0     0 -1.295146598E+02 -3.700449812E+01 -8.054141003E+02  8.261115257E+02  1.250000000E+02  0.00000E+00  9.000E+00
      25     1     1     2     0     0  5.878722111E+01 -1.996381259E+01 -3.575493927E+01  1.440760454E+02  1.250000000E+02  0.00000E+00  9.000E+00
      21     1     1     2   512   502  7.072743866E+01  5.696831071E+01  6.259132236E+00  9.103260812E+01  9.536743164E-07  0.00000E+00  9.000E+00
#rwgt            1           1   4.8068883609437472E-002           5       23929           0
</event>
<event>
      5   9999  3.79277E-02  1.72622E+01 -1.00000E+00  1.71823E-01
      21    -1     0     0   502   511  0.000000000E+00  0.000000000E+00  8.150377350E+01  8.150377350E+01  0.000000000E+00  0.00000E+00  9.000E+00
      21    -1     0     0   501   502  0.000000000E+00  0.000000000E+00 -5.511911749E+02  5.511911749E+02  0.000000000E+00  0.00000E+00  9.000E+00
      25     1     1     2     0     0  2.342665294E+01  1.513999063E+02 -1.476596360E+02  2.467774459E+02  1.250000000E+02  0.00000E+00  9.000E+00
      25     1     1     2     0     0 -1.978620193E+01 -1.345259623E+02 -3.186780640E+02  3.683333229E+02  1.250000000E+02  0.00000E+00  9.000E+00
      21     1     1     2   501   511 -3.640451010E+00 -1.687394406E+01 -3.349701420E+00  1.758417957E+01  3.345302391E-07  0.00000E+00  9.000E+00
#rwgt            1           1   4.4855818232277272E-002           5       24007           0
</event>
<event>
      5   9999  3.79277E-02  1.92411E+02 -1.00000E+00  1.12263E-01
      21    -1     0     0   512   501  0.000000000E+00  0.000000000E+00  1.235968262E+03  1.235968262E+03  0.000000000E+00  0.00000E+00  9.000E+00
      21    -1     0     0   501   502  0.000000000E+00  0.000000000E+00 -8.938011642E+01  8.938011642E+01  0.000000000E+00  0.00000E+00  9.000E+00
      25     1     1     2     0     0 -1.976535148E+02 -1.587112403E+01  3.778144619E+02  4.446207059E+02  1.250000000E+02  0.00000E+00  9.000E+00
      25     1     1     2     0     0  7.930870018E+01  1.675825661E+02  3.013211201E+02  3.752242047E+02  1.250000000E+02  0.00000E+00  9.000E+00
      21     1     1     2   512   502  1.183448146E+02 -1.517114421E+02  4.674525637E+02  5.055034680E+02  7.629394531E-06  0.00000E+00  9.000E+00
#rwgt            2          11   1.5269060715426806E-003           5       24142           0
</event>
<event>
      5   9999  3.79277E-02  1.02411E+01 -1.00000E+00  1.94569E-01
      21    -1     0     0   511   501  0.000000000E+00  0.000000000E+00  2.543497557E+02  2.543497557E+02  0.000000000E+00  0.00000E+00  9.000E+00
      21    -1     0     0   501   502  0.000000000E+00  0.000000000E+00 -1.133792819E+02  1.133792819E+02  0.000000000E+00  0.00000E+00  9.000E+00
      25     1     1     2     0     0 -8.704006752E+01  7.277128742E+00  1.569595945E+01  1.532980531E+02  1.250000000E+02  0.00000E+00  9.000E+00
      25     1     1     2     0     0  9.204522646E+01  1.657582511E+00  9.390892950E+01  1.814358243E+02  1.250000000E+02  0.00000E+00  9.000E+00
      21     1     1     2   511   502 -5.005158940E+00 -8.934711253E+00  3.136558490E+01  3.299516021E+01  0.000000000E+00  0.00000E+00  9.000E+00
#rwgt            1           1   5.9207048697919006E-002           5       24267           0
</event>
<event>
      5   9999  3.79277E-02  5.59256E+01 -1.00000E+00  1.36356E-01
      21    -1     0     0   502   501  0.000000000E+00  0.000000000E+00  6.039035379E+02  6.039035379E+02  0.000000000E+00  0.00000E+00  9.000E+00
      21    -1     0     0   501   512  0.000000000E+00  0.000000000E+00 -7.924709742E+01  7.924709742E+01  0.000000000E+00  0.00000E+00  9.000E+00
      25     1     1     2     0     0  3.788253841E+01 -7.486601055E+01  3.539491124E+02  3.846361663E+02  1.250000000E+02  0.00000E+00  9.000E+00
      25     1     1     2     0     0 -7.152413898E+01  1.195417132E+02  1.155254680E+02  2.199478516E+02  1.250000000E+02  0.00000E+00  9.000E+00
      21     1     1     2   502   512  3.364160056E+01 -4.467570265E+01  5.518186003E+01  7.856661742E+01  9.536743164E-07  0.00000E+00  9.000E+00
#rwgt            1           1   4.4181589285396547E-002           5       24500           0
</event>
<event>
      5   9999  3.79277E-02  6.33679E+01 -1.00000E+00  1.33448E-01
      21    -1     0     0   511   501  0.000000000E+00  0.000000000E+00  1.113642138E+03  1.113642138E+03  0.000000000E+00  0.00000E+00  9.000E+00
      21    -1     0     0   501   502  0.000000000E+00  0.000000000E+00 -5.419414996E+01  5.419414996E+01  0.000000000E+00  0.00000E+00  9.000E+00
      25     1     1     2     0     0 -1.237874645E+02 -1.083394467E+02  5.625730996E+02  5.993114920E+02  1.250000000E+02  0.00000E+00  9.000E+00
      25     1     1     2     0     0  1.475642367E+02  4.960146482E+01  2.893821612E+02  3.515715354E+02  1.250000000E+02  0.00000E+00  9.000E+00
      21     1     1     2   511   502 -2.377677224E+01  5.873798186E+01  2.074927272E+02  2.169532605E+02  4.672030912E-06  0.00000E+00  9.000E+00
#rwgt            1           1   3.7793675372053706E-002           5       24702           0
</event>
<event>
      5   9999  3.79277E-02  1.12797E+02 -1.00000E+00  1.21521E-01
       2    -1     0     0   502     0  0.000000000E+00  0.000000000E+00  3.534856935E+03  3.534856935E+03  0.000000000E+00  0.00000E+00  9.000E+00
      21    -1     0     0   501   502  0.000000000E+00  0.000000000E+00 -3.730824779E+02  3.730824779E+02  0.000000000E+00  0.00000E+00  9.000E+00
      25     1     1     2     0     0  1.773893122E+01  7.393236154E+01 -2.239337894E+02  2.674920668E+02  1.250000000E+02  0.00000E+00  9.000E+00
      25     1     1     2     0     0  5.410556095E+00 -1.843281607E+02 -2.830484853E+01  2.245713904E+02  1.250000000E+02  0.00000E+00  9.000E+00
       2     1     1     2   501     0 -2.314948732E+01  1.103957991E+02  3.414013095E+03  3.415875955E+03  4.315837288E-05  0.00000E+00  9.000E+00
#rwgt            1           1   4.4402510160686158E-002           5       24749           0
</event>
<event>
      5   9999  3.79277E-02  2.15326E+01 -1.00000E+00  1.63766E-01
      21    -1     0     0   502   511  0.000000000E+00  0.000000000E+00  2.700058968E+03  2.700058968E+03  0.000000000E+00  0.00000E+00  9.000E+00
      21    -1     0     0   501   502  0.000000000E+00  0.000000000E+00 -1.417898801E+01  1.417898801E+01  0.000000000E+00  0.00000E+00  9.000E+00
      25     1     1     2     0     0  5.130603638E+01  1.138831616E+02  1.230523242E+03  1.243146867E+03  1.250000000E+02  0.00000E+00  9.000E+00
      25     1     1     2     0     0 -6.515918311E+01 -1.303677976E+02  1.258959679E+03  1.273517159E+03  1.250000000E+02  0.00000E+00  9.000E+00
      21     1     1     2   501   511  1.385314673E+01  1.648463602E+01  1.963970596E+02  1.975739302E+02  0.000000000E+00  0.00000E+00  9.000E+00
#rwgt            1           1   6.2241351545879571E-002           5       24824           0
</event>
<event>
      5   9999  3.79277E-02  8.52067E+01 -1.00000E+00  1.27038E-01
      21    -1     0     0   512   501  0.000000000E+00  0.000000000E+00  5.245922369E+02  5.245922369E+02  0.000000000E+00  0.00000E+00  9.000E+00
      21    -1     0     0   501   502  0.000000000E+00  0.000000000E+00 -1.183752133E+02  1.183752133E+02  0.000000000E+00  0.00000E+00  9.000E+00
      25     1     1     2     0     0 -8.990657721E+01 -1.297436089E+02  1.562470533E+02  2.548621948E+02  1.250000000E+02  0.00000E+00  9.000E+00
      25     1     1     2     0     0  1.527568075E+02  7.221075458E+01  1.596450145E+02  2.639328816E+02  1.250000000E+02  0.00000E+00  9.000E+00
      21     1     1     2   512   502 -6.285023032E+01  5.753285434E+01  9.032495580E+01  1.241723738E+02  1.907348633E-06  0.00000E+00  9.000E+00
#rwgt            1           1   3.2566356956189875E-002           5       25038           0
</event>
<event>
      5   9999 -3.79277E-02  1.65279E+01 -1.00000E+00  1.73505E-01
      21    -1     0     0   502   501  0.000000000E+00  0.000000000E+00  7.484431468E+02  7.484431468E+02  0.000000000E+00  0.00000E+00  9.000E+00
       2    -1     0     0   501     0  0.000000000E+00  0.000000000E+00 -2.757557543E+02  2.757557543E+02  0.000000000E+00  0.00000E+00  9.000E+00
      25     1     1     2     0     0  1.139231239E+02 -3.364469150E+00  2.762562738E+02  3.239325958E+02  1.250000000E+02  0.00000E+00  9.000E+00
      25     1     1     2     0     0 -1.290388049E+02  1.004932945E+01  4.299914402E+02  4.661219162E+02  1.250000000E+02  0.00000E+00  9.000E+00
       2     1     1     2   502     0  1.511568098E+01 -6.684860303E+00 -2.335603215E+02  2.341443891E+02  2.697398305E-06  0.00000E+00  9.000E+00
#rwgt            1           1 -0.25195501772421952                5       25259           0
</event>
<event>
      5   9999  3.79277E-02  5.04390E+01 -1.00000E+00  1.38859E-01
      21    -1     0     0   502   501  0.000000000E+00  0.000000000E+00  3.043614283E+02  3.043614283E+02  0.000000000E+00  0.00000E+00  9.000E+00
      21    -1     0     0   511   502  0.000000000E+00  0.000000000E+00 -2.202108599E+02  2.202108599E+02  0.000000000E+00  0.00000E+00  9.000E+00
      25     1     1     2     0     0  1.047623160E+01  7.851094410E+01 -2.948445752E+01  1.508908646E+02  1.250000000E+02  0.00000E+00  9.000E+00
      25     1     1     2     0     0 -4.543179880E+01 -1.148730577E+02  2.045716027E+02  2.696931744E+02  1.250000000E+02  0.00000E+00  9.000E+00
      21     1     1     2   511   501  3.495556720E+01  3.636211356E+01 -9.093657680E+01  1.039882492E+02  1.348699152E-06  0.00000E+00  9.000E+00
#rwgt            1           1   1.7242967304941313E-002           5       25449           0
</event>
<event>
      5   9999  3.79277E-02  1.88991E+01 -1.00000E+00  1.68424E-01
      21    -1     0     0   512   501  0.000000000E+00  0.000000000E+00  2.531123903E+01  2.531123903E+01  0.000000000E+00  0.00000E+00  9.000E+00
      21    -1     0     0   501   502  0.000000000E+00  0.000000000E+00 -1.260129182E+03  1.260129182E+03  0.000000000E+00  0.00000E+00  9.000E+00
      25     1     1     2     0     0 -4.164323263E+01 -4.784356844E+01 -4.463181294E+02  4.678119691E+02  1.250000000E+02  0.00000E+00  9.000E+00
      25     1     1     2     0     0  5.814334806E+01  5.705893974E+01 -7.841721774E+02  7.982401740E+02  1.250000000E+02  0.00000E+00  9.000E+00
      21     1     1     2   512   502 -1.650011543E+01 -9.215371303E+00 -4.327635923E+00  1.938827764E+01  7.152557373E-07  0.00000E+00  9.000E+00
#rwgt            1           1  0.12310170120998029                5       25634           0
</event>
<event>
      5   9999  3.79277E-02  1.52728E+01 -1.00000E+00  1.76649E-01
      21    -1     0     0   502   511  0.000000000E+00  0.000000000E+00  2.009945346E+02  2.009945346E+02  0.000000000E+00  0.00000E+00  9.000E+00
      21    -1     0     0   501   502  0.000000000E+00  0.000000000E+00 -2.908453175E+02  2.908453175E+02  0.000000000E+00  0.00000E+00  9.000E+00
      25     1     1     2     0     0 -1.411096182E+02  1.234544465E+02 -1.229129549E+02  2.566817469E+02  1.250000000E+02  0.00000E+00  9.000E+00
      25     1     1     2     0     0  1.370041783E+02 -1.087437740E+02  2.161797870E+01  2.160733446E+02  1.250000000E+02  0.00000E+00  9.000E+00
      21     1     1     2   501   511  4.105439904E+00 -1.471067252E+01  1.144419331E+01  1.908476050E+01  1.685873940E-07  0.00000E+00  9.000E+00
#rwgt            1           1   3.9099908168197778E-002           5       25826           0
</event>
<event>
      5   9999  3.79277E-02  5.47477E+01 -1.00000E+00  1.36864E-01
      21    -1     0     0   512   501  0.000000000E+00  0.000000000E+00  1.691930744E+03  1.691930744E+03  0.000000000E+00  0.00000E+00  9.000E+00
      21    -1     0     0   501   502  0.000000000E+00  0.000000000E+00 -2.685953276E+02  2.685953276E+02  0.000000000E+00  0.00000E+00  9.000E+00
      25     1     1     2     0     0 -6.972828349E+01  9.135826658E+01 -1.578934694E+02  2.318700370E+02  1.250000000E+02  0.00000E+00  9.000E+00
      25     1     1     2     0     0  1.498380462E+01 -9.076165146E+01  8.986182766E+00  1.554604234E+02  1.250000000E+02  0.00000E+00  9.000E+00
      21     1     1     2   512   502  5.474447888E+01 -5.966151149E-01  1.572242703E+03  1.573195611E+03  3.737624730E-05  0.00000E+00  9.000E+00
#rwgt            1           1   4.5289670708810278E-002           5       26008           0
</event>
<event>
      5   9999  3.79277E-02  4.33012E+01 -1.00000E+00  1.42736E-01
      21    -1     0     0   502   511  0.000000000E+00  0.000000000E+00  1.917660020E+03  1.917660020E+03  0.000000000E+00  0.00000E+00  9.000E+00
      21    -1     0     0   501   502  0.000000000E+00  0.000000000E+00 -4.061687167E+01  4.061687167E+01  0.000000000E+00  0.00000E+00  9.000E+00
      25     1     1     2     0     0 -7.742313366E+01 -1.337522010E+02  9.077621320E+02  9.292691113E+02  1.250000000E+02  0.00000E+00  9.000E+00
      25     1     1     2     0     0  8.346791720E+01  9.087501772E+01  2.346686679E+02  2.931203605E+02  1.250000000E+02  0.00000E+00  9.000E+00
      21     1     1     2   501   511 -6.044783539E+00  4.287718327E+01  7.346123485E+02  7.358874199E+02  1.525878906E-05  0.00000E+00  9.000E+00
#rwgt            1           1   2.6084575052592925E-002           5       26123           0
</event>
<event>
      5   9999  3.79277E-02  3.24376E+01 -1.00000E+00  1.50720E-01
      21    -1     0     0   502   501  0.000000000E+00  0.000000000E+00  1.821573320E+02  1.821573320E+02  0.000000000E+00  0.00000E+00  9.000E+00
      21    -1     0     0   501   512  0.000000000E+00  0.000000000E+00 -4.337902846E+02  4.337902846E+02  0.000000000E+00  0.00000E+00  9.000E+00
      25     1     1     2     0     0  1.785243052E+02 -4.021351490E+01  4.109336924E+01  2.253923675E+02  1.250000000E+02  0.00000E+00  9.000E+00
      25     1     1     2     0     0 -1.725631513E+02  7.209863712E+01 -2.671825141E+02  3.492674484E+02  1.250000000E+02  0.00000E+00  9.000E+00
      21     1     1     2   502   512 -5.961153854E+00 -3.188512221E+01 -2.554380782E+01  4.128780076E+01  7.539457465E-07  0.00000E+00  9.000E+00
#rwgt            1           1   4.2690377126754886E-002           5       26231           0
</event>
<event>
      5   9999  3.79277E-02  6.90050E+01 -1.00000E+00  1.31536E-01
      21    -1     0     0   502   501  0.000000000E+00  0.000000000E+00  1.396219217E+03  1.396219217E+03  0.000000000E+00  0.00000E+00  9.000E+00
      21    -1     0     0   501   511  0.000000000E+00  0.000000000E+00 -1.271551318E+02  1.271551318E+02  0.000000000E+00  0.00000E+00  9.000E+00
      25     1     1     2     0     0  1.711139345E+02  1.903112669E+00  3.252741341E+02  3.882162577E+02  1.250000000E+02  0.00000E+00  9.000E+00
      25     1     1     2     0     0 -1.884526289E+02 -6.869427830E+01  1.011342817E+03  1.038591638E+03  1.250000000E+02  0.00000E+00  9.000E+00
      21     1     1     2   502   511  1.733869440E+01  6.679116563E+01 -6.755286594E+01  9.656645290E+01  3.303624740E-06  0.00000E+00  9.000E+00
#rwgt            1           1   4.0061644102279359E-002           5       26350           0
</event>
<event>
      5   9999  3.79277E-02  4.88652E+01 -1.00000E+00  1.39647E-01
      21    -1     0     0   512   501  0.000000000E+00  0.000000000E+00  7.261103316E+02  7.261103316E+02  0.000000000E+00  0.00000E+00  9.000E+00
      21    -1     0     0   501   502  0.000000000E+00  0.000000000E+00 -1.782622053E+02  1.782622053E+02  0.000000000E+00  0.00000E+00  9.000E+00
      25     1     1     2     0     0 -1.644557094E+02 -1.911109489E+02  4.197926438E+02  5.053908774E+02  1.250000000E+02  0.00000E+00  9.000E+00
      25     1     1     2     0     0  2.051384049E+02  2.181797860E+02  8.919609030E+01  3.365488475E+02  1.250000000E+02  0.00000E+00  9.000E+00
      21     1     1     2   512   502 -4.068269557E+01 -2.706883709E+01  3.885939219E+01  6.243281206E+01  6.743495762E-07  0.00000E+00  9.000E+00
#rwgt            1           1  0.24703746679037611                5       26486           0
</event>
<event>
      5   9999  3.79277E-02  4.76017E+01 -1.00000E+00  1.40305E-01
      21    -1     0     0   502   501  0.000000000E+00  0.000000000E+00  2.994133995E+01  2.994133995E+01  0.000000000E+00  0.00000E+00  9.000E+00
      21    -1     0     0   501   511  0.000000000E+00  0.000000000E+00 -1.062656268E+03  1.062656268E+03  0.000000000E+00  0.00000E+00  9.000E+00
      25     1     1     2     0     0  8.539635236E+01  1.761491626E+01 -3.800857459E+02  4.095033535E+02  1.250000000E+02  0.00000E+00  9.000E+00
      25     1     1     2     0     0 -7.559599149E+01  2.896700540E+01 -4.193862524E+02  4.450434474E+02  1.250000000E+02  0.00000E+00  9.000E+00
      21     1     1     2   502   511 -9.800360869E+00 -4.658192166E+01 -2.332429301E+02  2.380508075E+02  0.000000000E+00  0.00000E+00  9.000E+00
#rwgt            1           1   4.7369005977056289E-002           5       26610           0
</event>
<event>
      5   9999  3.79277E-02  3.89089E+01 -1.00000E+00  1.45589E-01
      21    -1     0     0   502   501  0.000000000E+00  0.000000000E+00  8.312538346E+02  8.312538346E+02  0.000000000E+00  0.00000E+00  9.000E+00
      21    -1     0     0   501   512  0.000000000E+00  0.000000000E+00 -1.428288383E+02  1.428288383E+02  0.000000000E+00  0.00000E+00  9.000E+00
      25     1     1     2     0     0 -2.115803439E+02 -1.727483636E+02  2.593073441E+02  3.968293559E+02  1.250000000E+02  0.00000E+00  9.000E+00
      25     1     1     2     0     0  2.149918073E+02  2.115074181E+02  4.280382343E+02  5.383294485E+02  1.250000000E+02  0.00000E+00  9.000E+00
      21     1     1     2   502   512 -3.411463412E+00 -3.875905456E+01  1.079417831E+00  3.892386846E+01  4.053554090E-07  0.00000E+00  9.000E+00
#rwgt            1           1   2.5543563953899867E-002           5       26737           0
</event>
<event>
      5   9999  3.79277E-02  4.40130E+01 -1.00000E+00  1.42311E-01
      21    -1     0     0   502   501  0.000000000E+00  0.000000000E+00  2.536672462E+03  2.536672462E+03  0.000000000E+00  0.00000E+00  9.000E+00
      21    -1     0     0   511   502  0.000000000E+00  0.000000000E+00 -1.052960435E+02  1.052960435E+02  0.000000000E+00  0.00000E+00  9.000E+00
      25     1     1     2     0     0  1.154972294E+02  2.541874190E+01  1.318237890E+03  1.329421625E+03  1.250000000E+02  0.00000E+00  9.000E+00
      25     1     1     2     0     0 -1.585670421E+02 -1.635583635E+01  1.199037196E+03  1.216028872E+03  1.250000000E+02  0.00000E+00  9.000E+00
      21     1     1     2   511   501  4.306981262E+01 -9.062905548E+00 -8.589866708E+01  9.651800879E+01  4.264961200E-06  0.00000E+00  9.000E+00
#rwgt            2          11   1.6545262612181651E-002           5       26921           0
</event>
<event>
      5   9999  3.79277E-02  2.73287E+01 -1.00000E+00  1.55907E-01
      21    -1     0     0   502   512  0.000000000E+00  0.000000000E+00  2.464469865E+02  2.464469865E+02  0.000000000E+00  0.00000E+00  9.000E+00
      21    -1     0     0   501   502  0.000000000E+00  0.000000000E+00 -5.007723228E+02  5.007723228E+02  0.000000000E+00  0.00000E+00  9.000E+00
      25     1     1     2     0     0  1.054519758E+02  2.972062910E+01  1.451956841E+02  2.207039231E+02  1.250000000E+02  0.00000E+00  9.000E+00
      25     1     1     2     0     0 -1.195611467E+02 -6.315761057E+00 -4.427450477E+02  4.753766232E+02  1.250000000E+02  0.00000E+00  9.000E+00
      21     1     1     2   501   512  1.410917091E+01 -2.340486804E+01  4.322402732E+01  5.113876308E+01  8.259061849E-07  0.00000E+00  9.000E+00
#rwgt            1           1   5.1043881489091995E-002           5       26971           0
</event>
<event>
      5   9999  3.79277E-02  1.54647E+01 -1.00000E+00  1.76144E-01
      21    -1     0     0   511   501  0.000000000E+00  0.000000000E+00  4.459306617E+02  4.459306617E+02  0.000000000E+00  0.00000E+00  9.000E+00
      21    -1     0     0   501   502  0.000000000E+00  0.000000000E+00 -1.602130238E+02  1.602130238E+02  0.000000000E+00  0.00000E+00  9.000E+00
      25     1     1     2     0     0 -1.353387922E+02 -1.622190833E+00 -2.705493055E+01  1.862154382E+02  1.250000000E+02  0.00000E+00  9.000E+00
      25     1     1     2     0     0  1.482965739E+02  1.006325974E+01  1.237785285E+02  2.303025556E+02  1.250000000E+02  0.00000E+00  9.000E+00
      21     1     1     2   511   502 -1.295778173E+01 -8.441068911E+00  1.889940400E+02  1.896256916E+02  0.000000000E+00  0.00000E+00  9.000E+00
#rwgt            1           1   2.0793441762911095E-002           5       27237           0
</event>
<event>
      5   9999  3.79277E-02  3.97527E+01 -1.00000E+00  1.45007E-01
       2    -1     0     0   502     0  0.000000000E+00  0.000000000E+00  1.776396236E+03  1.776396236E+03  0.000000000E+00  0.00000E+00  9.000E+00
      21    -1     0     0   501   502  0.000000000E+00  0.000000000E+00 -1.405602392E+02  1.405602392E+02  0.000000000E+00  0.00000E+00  9.000E+00
      25     1     1     2     0     0 -2.368799431E+00  3.319140781E+02  1.683625430E+02  3.926111465E+02  1.250000000E+02  0.00000E+00  9.000E+00
      25     1     1     2     0     0 -3.337476120E+01 -3.493115223E+02  1.340602918E+03  1.391392683E+03  1.250000000E+02  0.00000E+00  9.000E+00
       2     1     1     2   501     0  3.574356063E+01  1.739744429E+01  1.268705354E+02  1.329526455E+02  2.336015456E-06  0.00000E+00  9.000E+00
#rwgt            1           1  0.13490184396848384                5       27530           0
</event>
<event>
      5   9999  3.79277E-02  1.16144E+02 -1.00000E+00  1.20973E-01
       2    -1     0     0   502     0  0.000000000E+00  0.000000000E+00  7.535893040E+02  7.535893040E+02  0.000000000E+00  0.00000E+00  9.000E+00
      21    -1     0     0   501   502  0.000000000E+00  0.000000000E+00 -4.720190288E+02  4.720190288E+02  0.000000000E+00  0.00000E+00  9.000E+00
      25     1     1     2     0     0 -2.791643589E+02  4.681983347E+01  1.835324999E+02  3.597693908E+02  1.250000000E+02  0.00000E+00  9.000E+00
      25     1     1     2     0     0  2.754182469E+02 -1.629037774E+02 -2.969747294E+02  4.541055399E+02  1.250000000E+02  0.00000E+00  9.000E+00
       2     1     1     2   501     0  3.746111971E+00  1.160839439E+02  3.950125048E+02  4.117334020E+02  5.394796609E-06  0.00000E+00  9.000E+00
#rwgt            1           1   3.7061170403552696E-002           5       27679           0
</event>
<event>
      5   9999  3.79277E-02  1.62912E+02 -1.00000E+00  1.14990E-01
      21    -1     0     0   502   511  0.000000000E+00  0.000000000E+00  1.646377051E+02  1.646377051E+02  0.000000000E+00  0.00000E+00  9.000E+00
      21    -1     0     0   501   502  0.000000000E+00  0.000000000E+00 -1.632703661E+03  1.632703661E+03  0.000000000E+00  0.00000E+00  9.000E+00
      25     1     1     2     0     0 -1.296904536E+02 -1.608992431E+02 -9.005368076E+02  9.323624413E+02  1.250000000E+02  0.00000E+00  9.000E+00
      25     1     1     2     0     0 -8.144795623E+00  2.477417593E+02 -6.316029443E+02  6.899199927E+02  1.250000000E+02  0.00000E+00  9.000E+00
      21     1     1     2   501   511  1.378352492E+02 -8.684251622E+01  6.407379574E+01  1.750589325E+02  1.348699152E-06  0.00000E+00  9.000E+00
#rwgt            1           1  0.15448913615211030                5       27800           0
</event>
<event>
      5   9999  3.79277E-02  1.18752E+02 -1.00000E+00  1.20561E-01
      21    -1     0     0   512   501  0.000000000E+00  0.000000000E+00  7.305606052E+01  7.305606052E+01  0.000000000E+00  0.00000E+00  9.000E+00
      21    -1     0     0   501   502  0.000000000E+00  0.000000000E+00 -1.933038960E+03  1.933038960E+03  0.000000000E+00  0.00000E+00  9.000E+00
      25     1     1     2     0     0  2.254393809E+02 -1.349807537E+02 -8.474050474E+02  8.959704419E+02  1.250000000E+02  0.00000E+00  9.000E+00
      25     1     1     2     0     0 -2.684135911E+02  2.427747973E+01 -8.949713714E+02  9.429920506E+02  1.250000000E+02  0.00000E+00  9.000E+00
      21     1     1     2   512   502  4.297421025E+01  1.107032740E+02 -1.176064807E+02  1.671325280E+02  1.348699152E-06  0.00000E+00  9.000E+00
#rwgt            1           1   4.1444523556390667E-002           5       27881           0
</event>
<event>
      5   9999 -3.79277E-02  1.99341E+00 -1.00000E+00  3.63743E-01
      21    -1     0     0   502   501  0.000000000E+00  0.000000000E+00  5.255849888E+02  5.255849888E+02  0.000000000E+00  0.00000E+00  9.000E+00
      -1    -1     0     0     0   502  0.000000000E+00  0.000000000E+00 -2.349592452E+03  2.349592452E+03  0.000000000E+00  0.00000E+00  9.000E+00
      25     1     1     2     0     0 -1.972583541E+02  4.933459421E+01  2.261107074E+02  3.287792762E+02  1.250000000E+02  0.00000E+00  9.000E+00
      25     1     1     2     0     0  1.972544447E+02 -5.132799581E+01  1.905420463E+02  3.057370611E+02  1.250000000E+02  0.00000E+00  9.000E+00
      -1     1     1     2     0   501  3.909367917E-03  1.993401598E+00 -2.240660216E+03  2.240661103E+03  3.051757812E-05  0.00000E+00  9.000E+00
#rwgt            1           1 -0.12568800551841092                5       27951           0
</event>
<event>
      5   9999 -3.79277E-02  1.82799E+01 -1.00000E+00  1.69657E-01
      21    -1     0     0   502   501  0.000000000E+00  0.000000000E+00  4.890586907E+02  4.890586907E+02  0.000000000E+00  0.00000E+00  9.000E+00
      21    -1     0     0   501   511  0.000000000E+00  0.000000000E+00 -2.393591095E+02  2.393591095E+02  0.000000000E+00  0.00000E+00  9.000E+00
      25     1     1     2     0     0 -1.494436459E+02 -2.291841997E+02 -1.168214109E+01  3.010320135E+02  1.250000000E+02  0.00000E+00  9.000E+00
      25     1     1     2     0     0  1.677126426E+02  2.298154590E+02  2.654083277E+02  4.086676597E+02  1.250000000E+02  0.00000E+00  9.000E+00
      21     1     1     2   502   511 -1.826899667E+01 -6.312592642E-01 -4.026605398E+00  1.871812701E+01  4.539354507E-07  0.00000E+00  9.000E+00
#rwgt            1           1 -0.16037969117691797                5       28615           0
</event>
<event>
      5   9999  3.79277E-02  7.02561E+00 -1.00000E+00  2.15330E-01
      21    -1     0     0   502   501  0.000000000E+00  0.000000000E+00  3.087917576E+03  3.087917576E+03  0.000000000E+00  0.00000E+00  9.000E+00
      21    -1     0     0   501   512  0.000000000E+00  0.000000000E+00 -4.299033495E+01  4.299033495E+01  0.000000000E+00  0.00000E+00  9.000E+00
      25     1     1     2     0     0 -1.728028655E+02 -3.990860574E+01  1.406277262E+03  1.422917518E+03  1.250000000E+02  0.00000E+00  9.000E+00
      25     1     1     2     0     0  1.704929181E+02  4.654361509E+01  1.665871392E+03  1.679876971E+03  1.250000000E+02  0.00000E+00  9.000E+00
      21     1     1     2   502   512  2.309947467E+00 -6.635009347E+00 -2.722141228E+01  2.811342194E+01  1.305872339E-06  0.00000E+00  9.000E+00
#rwgt            1           1   2.8982846420660794E-002           5       28918           0
</event>
<event>
      5   9999 -3.79277E-02  9.40455E+01 -1.00000E+00  1.25039E-01
      21    -1     0     0   502   501  0.000000000E+00  0.000000000E+00  3.614615482E+02  3.614615482E+02  0.000000000E+00  0.00000E+00  9.000E+00
      21    -1     0     0   511   502  0.000000000E+00  0.000000000E+00 -2.060320877E+02  2.060320877E+02  0.000000000E+00  0.00000E+00  9.000E+00
      25     1     1     2     0     0 -1.224053945E+02 -7.229473180E+01 -2.850408722E+01  1.914343016E+02  1.250000000E+02  0.00000E+00  9.000E+00
      25     1     1     2     0     0  1.881362782E+02  5.033943873E+00  1.658996036E+02  2.803003358E+02  1.250000000E+02  0.00000E+00  9.000E+00
      21     1     1     2   511   501 -6.573088375E+01  6.726078792E+01  1.803394410E+01  9.575899859E+01  8.259061849E-07  0.00000E+00  9.000E+00
#rwgt            1           1 -0.39208487236613654                5       29164           0
</event>
<event>
      5   9999  3.79277E-02  1.68795E+01 -1.00000E+00  1.72686E-01
      21    -1     0     0   502   501  0.000000000E+00  0.000000000E+00  6.174350210E+02  6.174350210E+02  0.000000000E+00  0.00000E+00  9.000E+00
      21    -1     0     0   501   512  0.000000000E+00  0.000000000E+00 -5.545012922E+01  5.545012922E+01  0.000000000E+00  0.00000E+00  9.000E+00
      25     1     1     2     0     0 -8.074338900E+01 -9.948585225E+01  2.899242506E+02  3.407315670E+02  1.250000000E+02  0.00000E+00  9.000E+00
      25     1     1     2     0     0  6.399948130E+01  1.016209329E+02  2.530855309E+02  3.067572877E+02  1.250000000E+02  0.00000E+00  9.000E+00
      21     1     1     2   502   512  1.674390771E+01 -2.135080674E+00  1.897511025E+01  2.539629547E+01  4.129530925E-07  0.00000E+00  9.000E+00
#rwgt            1           1   4.0379677207718442E-002           5       29318           0
</event>
<event>
      5   9999  3.79277E-02  5.29307E+00 -1.00000E+00  2.34274E-01
      21    -1     0     0   502   501  0.000000000E+00  0.000000000E+00  2.318442434E+02  2.318442434E+02  0.000000000E+00  0.00000E+00  9.000E+00
      21    -1     0     0   511   502  0.000000000E+00  0.000000000E+00 -1.769577076E+02  1.769577076E+02  0.000000000E+00  0.00000E+00  9.000E+00
      25     1     1     2     0     0  1.288910517E+02  2.737746307E+01 -4.335805637E+01  1.867280100E+02  1.250000000E+02  0.00000E+00  9.000E+00
      25     1     1     2     0     0 -1.262537150E+02 -3.196669121E+01  1.084409161E+02  2.105856172E+02  1.250000000E+02  0.00000E+00  9.000E+00
      21     1     1     2   511   501 -2.637336677E+00  4.589228146E+00 -1.019632390E+01  1.148832368E+01  0.000000000E+00  0.00000E+00  9.000E+00
#rwgt            1           1   3.8758468658780139E-002           5       29547           0
</event>
<event>
      5   9999  3.79277E-02  3.63152E+02 -1.00000E+00  1.02965E-01
      21    -1     0     0   502   512  0.000000000E+00  0.000000000E+00  7.636989581E+02  7.636989581E+02  0.000000000E+00  0.00000E+00  9.000E+00
      21    -1     0     0   501   502  0.000000000E+00  0.000000000E+00 -3.079093180E+02  3.079093180E+02  0.000000000E+00  0.00000E+00  9.000E+00
      25     1     1     2     0     0 -9.419763393E+00 -2.083484293E+02  2.007834361E+02  3.153359925E+02  1.250000000E+02  0.00000E+00  9.000E+00
      25     1     1     2     0     0  3.166501393E+02  1.472892164E+01  6.674671950E+01  3.472238132E+02  1.250000000E+02  0.00000E+00  9.000E+00
      21     1     1     2   501   512 -3.072303759E+02  1.936195077E+02  1.882594845E+02  4.090484704E+02  3.814697266E-06  0.00000E+00  9.000E+00
#rwgt            1           1   1.7982224698856665E-002           5       29969           0
</event>
<event>
      5   9999  3.79277E-02  1.22868E+01 -1.00000E+00  1.85956E-01
      21    -1     0     0   502   501  0.000000000E+00  0.000000000E+00  1.199481932E+03  1.199481932E+03  0.000000000E+00  0.00000E+00  9.000E+00
      21    -1     0     0   501   511  0.000000000E+00  0.000000000E+00 -2.236879704E+01  2.236879704E+01  0.000000000E+00  0.00000E+00  9.000E+00
      25     1     1     2     0     0 -7.737038048E+01  6.289349170E+01  5.351861142E+02  5.585614952E+02  1.250000000E+02  0.00000E+00  9.000E+00
      25     1     1     2     0     0  6.509596990E+01 -6.344571367E+01  6.012186805E+02  6.207670623E+02  1.250000000E+02  0.00000E+00  9.000E+00
      21     1     1     2   502   511  1.227441059E+01  5.522219674E-01  4.070834023E+01  4.252217149E+01  4.768371582E-07  0.00000E+00  9.000E+00
#rwgt            1           1   3.6602740789710819E-002           5       30108           0
</event>
<event>
      5   9999  3.79277E-02  3.17071E+01 -1.00000E+00  1.51389E-01
      21    -1     0     0   502   501  0.000000000E+00  0.000000000E+00  1.788488508E+02  1.788488508E+02  0.000000000E+00  0.00000E+00  9.000E+00
      21    -1     0     0   512   502  0.000000000E+00  0.000000000E+00 -4.278127476E+02  4.278127476E+02  0.000000000E+00  0.00000E+00  9.000E+00
      25     1     1     2     0     0  1.253592717E+02 -1.324852400E+02 -7.113226325E+01  2.322758806E+02  1.250000000E+02  0.00000E+00  9.000E+00
      25     1     1     2     0     0 -1.377360439E+02  1.032935144E+02 -2.033269553E+01  2.137268967E+02  1.250000000E+02  0.00000E+00  9.000E+00
      21     1     1     2   512   501  1.237677211E+01  2.919172563E+01 -1.574989379E+02  1.606588211E+02  2.697398305E-06  0.00000E+00  9.000E+00
#rwgt            2          11   7.0789946649684561E-004           5       30413           0
</event>
<event>
      5   9999  3.79277E-02  2.41572E+02 -1.00000E+00  1.08742E-01
       1    -1     0     0   502     0  0.000000000E+00  0.000000000E+00  1.170527654E+03  1.170527654E+03  0.000000000E+00  0.00000E+00  9.000E+00
      21    -1     0     0   501   502  0.000000000E+00  0.000000000E+00 -1.476075242E+02  1.476075242E+02  0.000000000E+00  0.00000E+00  9.000E+00
      25     1     1     2     0     0  2.274542171E+01 -1.804192553E+01  5.726070777E+02  5.868106430E+02  1.250000000E+02  0.00000E+00  9.000E+00
      25     1     1     2     0     0 -6.617293310E+01  2.556780866E+02  1.062170232E+02  3.108974060E+02  1.250000000E+02  0.00000E+00  9.000E+00
       1     1     1     2   501     0  4.342751139E+01 -2.376361611E+02  3.440960291E+02  4.204271293E+02  6.607249480E-06  0.00000E+00  9.000E+00
#rwgt            2          17   8.2677026410554009E-005           5       30463           0
</event>
<event>
      5   9999  3.79277E-02  6.55176E+01 -1.00000E+00  1.32693E-01
      21    -1     0     0   502   501  0.000000000E+00  0.000000000E+00  2.326772955E+02  2.326772955E+02  0.000000000E+00  0.00000E+00  9.000E+00
      21    -1     0     0   511   502  0.000000000E+00  0.000000000E+00 -6.640319216E+02  6.640319216E+02  0.000000000E+00  0.00000E+00  9.000E+00
      25     1     1     2     0     0 -1.373002332E+02 -1.336544728E+02 -1.333019534E+01  2.291671142E+02  1.250000000E+02  0.00000E+00  9.000E+00
      25     1     1     2     0     0  1.272208491E+02  6.891682467E+01  4.783458418E+01  1.970985048E+02  1.250000000E+02  0.00000E+00  9.000E+00
      21     1     1     2   511   501  1.007938409E+01  6.473764815E+01 -4.658590149E+02  4.704435980E+02  0.000000000E+00  0.00000E+00  9.000E+00
#rwgt            1           1   3.6859622778667195E-002           5       30482           0
</event>
<event>
      5   9999  3.79277E-02  1.16449E+01 -1.00000E+00  1.88410E-01
      21    -1     0     0   502   501  0.000000000E+00  0.000000000E+00  1.136398586E+03  1.136398586E+03  0.000000000E+00  0.00000E+00  9.000E+00
      21    -1     0     0   512   502  0.000000000E+00  0.000000000E+00 -1.998344131E+01  1.998344131E+01  0.000000000E+00  0.00000E+00  9.000E+00
      25     1     1     2     0     0 -4.114676139E+01 -6.557160137E+01  5.952350597E+02  6.131251644E+02  1.250000000E+02  0.00000E+00  9.000E+00
      25     1     1     2     0     0  3.199332995E+01  5.837313215E+01  4.786024179E+02  4.991154877E+02  1.250000000E+02  0.00000E+00  9.000E+00
      21     1     1     2   512   501  9.153431439E+00  7.198469228E+00  4.257766669E+01  4.414137478E+01  9.536743164E-07  0.00000E+00  9.000E+00
#rwgt            1           1   6.2285391511463853E-002           5       30596           0
</event>
<event>
      5   9999  3.79277E-02  1.59936E+02 -1.00000E+00  1.15300E-01
      21    -1     0     0   511   501  0.000000000E+00  0.000000000E+00  1.075415777E+02  1.075415777E+02  0.000000000E+00  0.00000E+00  9.000E+00
      21    -1     0     0   501   502  0.000000000E+00  0.000000000E+00 -9.516971583E+02  9.516971583E+02  0.000000000E+00  0.00000E+00  9.000E+00
      25     1     1     2     0     0  1.826066743E+02 -6.345505258E+01 -4.466458964E+02  5.024831320E+02  1.250000000E+02  0.00000E+00  9.000E+00
      25     1     1     2     0     0 -3.763483307E+01  1.310021394E+02 -3.395369971E+02  3.866371860E+02  1.250000000E+02  0.00000E+00  9.000E+00
      21     1     1     2   511   502 -1.449718412E+02 -6.754708686E+01 -5.797268699E+01  1.701184179E+02  1.168007728E-06  0.00000E+00  9.000E+00
#rwgt            1           1   3.4676787719572236E-002           5       30744           0
</event>
<event>
      5   9999 -3.79277E-02  1.61756E+01 -1.00000E+00  1.74351E-01
      21    -1     0     0   502   501  0.000000000E+00  0.000000000E+00  1.248655135E+02  1.248655135E+02  0.000000000E+00  0.00000E+00  9.000E+00
       2    -1     0     0   501     0  0.000000000E+00  0.000000000E+00 -1.593592396E+03  1.593592396E+03  0.000000000E+00  0.00000E+00  9.000E+00
      25     1     1     2     0     0 -9.240122998E+01 -2.894273943E+02 -4.031673741E+02  5.200722406E+02  1.250000000E+02  0.00000E+00  9.000E+00
      25     1     1     2     0     0  1.038151610E+02  3.008891553E+02 -3.744973985E+02  5.071342750E+02  1.250000000E+02  0.00000E+00  9.000E+00
       2     1     1     2   502     0 -1.141393102E+01 -1.146176094E+01 -6.910621099E+02  6.912513939E+02  1.321449896E-05  0.00000E+00  9.000E+00
#rwgt            1           1  -5.9939715898119590E-002           5       30831           0
</event>
<event>
      5   9999  3.79277E-02  2.47723E+01 -1.00000E+00  1.59049E-01
      21    -1     0     0   502   501  0.000000000E+00  0.000000000E+00  2.598537344E+02  2.598537344E+02  0.000000000E+00  0.00000E+00  9.000E+00
      21    -1     0     0   511   502  0.000000000E+00  0.000000000E+00 -1.162804348E+02  1.162804348E+02  0.000000000E+00  0.00000E+00  9.000E+00
      25     1     1     2     0     0  2.430193343E+01  6.386114946E+01  1.403585612E+01  1.431462037E+02  1.250000000E+02  0.00000E+00  9.000E+00
      25     1     1     2     0     0 -4.069537792E+00 -7.815513964E+01  1.424598017E+02  2.050477556E+02  1.250000000E+02  0.00000E+00  9.000E+00
      21     1     1     2   511   501 -2.023239563E+01  1.429399017E+01 -1.292235822E+01  2.794020992E+01  3.371747881E-07  0.00000E+00  9.000E+00
#rwgt            1           1   4.5383571795896541E-002           5       31132           0
</event>
<event>
      5   9999  3.79277E-02  2.00771E+01 -1.00000E+00  1.66231E-01
      21    -1     0     0   502   501  0.000000000E+00  0.000000000E+00  1.295459660E+02  1.295459660E+02  0.000000000E+00  0.00000E+00  9.000E+00
      21    -1     0     0   501   512  0.000000000E+00  0.000000000E+00 -7.236510745E+02  7.236510745E+02  0.000000000E+00  0.00000E+00  9.000E+00
      25     1     1     2     0     0 -1.675808895E+02 -1.479281956E+01 -1.632969867E+02  2.656935978E+02  1.250000000E+02  0.00000E+00  9.000E+00
      25     1     1     2     0     0  1.868747949E+02  2.034583134E+01 -8.516270705E+01  2.412754204E+02  1.250000000E+02  0.00000E+00  9.000E+00
      21     1     1     2   502   512 -1.929390548E+01 -5.553011785E+00 -3.456454147E+02  3.462280223E+02  6.607249480E-06  0.00000E+00  9.000E+00
#rwgt            1           1   3.8039618727028976E-002           5       31315           0
</event>
<event>
      5   9999 -3.79277E-02  2.10749E+01 -1.00000E+00  1.64515E-01
      21    -1     0     0   511   501  0.000000000E+00  0.000000000E+00  5.256855395E+01  5.256855395E+01  0.000000000E+00  0.00000E+00  9.000E+00
      21    -1     0     0   501   502  0.000000000E+00  0.000000000E+00 -8.588079214E+02  8.588079214E+02  0.000000000E+00  0.00000E+00  9.000E+00
      25     1     1     2     0     0 -2.992454918E+01 -1.371432086E+02 -4.498622755E+02  4.875497977E+02  1.250000000E+02  0.00000E+00  9.000E+00
      25     1     1     2     0     0  4.983062231E+01  1.302222518E+02 -3.565702678E+02  4.027508928E+02  1.250000000E+02  0.00000E+00  9.000E+00
      21     1     1     2   511   502 -1.990607313E+01  6.920956874E+00  1.931758239E-01  2.107578488E+01  4.315391461E-07  0.00000E+00  9.000E+00
#rwgt            1           1 -0.30050065553168814                5       31487           0
</event>
<event>
      5   9999  3.79277E-02  8.49125E+01 -1.00000E+00  1.27109E-01
      21    -1     0     0   502   512  0.000000000E+00  0.000000000E+00  2.016857141E+03  2.016857141E+03  0.000000000E+00  0.00000E+00  9.000E+00
      21    -1     0     0   501   502  0.000000000E+00  0.000000000E+00 -2.093517839E+02  2.093517839E+02  0.000000000E+00  0.00000E+00  9.000E+00
      25     1     1     2     0     0  4.916892460E+01  2.398727843E+02  3.781209516E+01  2.775090815E+02  1.250000000E+02  0.00000E+00  9.000E+00
      25     1     1     2     0     0 -2.109328093E-01 -3.092503021E+02  2.265431310E+02  4.032153073E+02  1.250000000E+02  0.00000E+00  9.000E+00
      21     1     1     2   501   512 -4.895799179E+01  6.937751783E+01  1.543150131E+03  1.545484536E+03  3.051757812E-05  0.00000E+00  9.000E+00
#rwgt            1           1   3.2819577651824472E-002           5       31672           0
</event>
<event>
      5   9999  3.79277E-02  1.54544E+01 -1.00000E+00  1.76171E-01
      21    -1     0     0   511   501  0.000000000E+00  0.000000000E+00  2.467985404E+02  2.467985404E+02  0.000000000E+00  0.00000E+00  9.000E+00
      21    -1     0     0   501   502  0.000000000E+00  0.000000000E+00 -4.567999067E+02  4.567999067E+02  0.000000000E+00  0.00000E+00  9.000E+00
      25     1     1     2     0     0  5.374270465E+01  1.582416812E+02 -3.737216522E+02  4.280439012E+02  1.250000000E+02  0.00000E+00  9.000E+00
      25     1     1     2     0     0 -6.055288543E+01 -1.443687303E+02  1.309875108E+02  2.393568679E+02  1.250000000E+02  0.00000E+00  9.000E+00
      21     1     1     2   511   502  6.810180781E+00 -1.387295096E+01  3.273277517E+01  3.619767811E+01  0.000000000E+00  0.00000E+00  9.000E+00
#rwgt            1           1   3.2028282287638467E-002           5       31797           0
</event>
<event>
      5   9999  3.79277E-02  3.91874E+01 -1.00000E+00  1.45395E-01
      21    -1     0     0   502   501  0.000000000E+00  0.000000000E+00  2.522161573E+02  2.522161573E+02  0.000000000E+00  0.00000E+00  9.000E+00
      21    -1     0     0   501   512  0.000000000E+00  0.000000000E+00 -7.473104175E+02  7.473104175E+02  0.000000000E+00  0.00000E+00  9.000E+00
      25     1     1     2     0     0  4.013922332E+01  2.200753729E+02 -1.076444234E+02  2.779508030E+02  1.250000000E+02  0.00000E+00  9.000E+00
      25     1     1     2     0     0 -1.900506377E+01 -2.530753108E+02  4.577605852E+01  2.865811455E+02  1.250000000E+02  0.00000E+00  9.000E+00
      21     1     1     2   502   512 -2.113415955E+01  3.299993790E+01 -4.332258953E+02  4.349946264E+02  5.394796609E-06  0.00000E+00  9.000E+00
#rwgt            1           1   3.6227477231413688E-002           5       32150           0
</event>
<event>
      5   9999  3.79277E-02  5.82961E+01 -1.00000E+00  1.35375E-01
      21    -1     0     0   502   501  0.000000000E+00  0.000000000E+00  1.348121348E+03  1.348121348E+03  0.000000000E+00  0.00000E+00  9.000E+00
      21    -1     0     0   501   511  0.000000000E+00  0.000000000E+00 -4.362822110E+01  4.362822110E+01  0.000000000E+00  0.00000E+00  9.000E+00
      25     1     1     2     0     0 -3.977695982E+01  1.611645505E+02  6.554576610E+02  6.876088744E+02  1.250000000E+02  0.00000E+00  9.000E+00
      25     1     1     2     0     0 -1.846687848E+01 -1.586970928E+02  5.760922065E+02  6.107642944E+02  1.250000000E+02  0.00000E+00  9.000E+00
      21     1     1     2   502   511  5.824383830E+01 -2.467457696E+00  7.294325960E+01  9.337640049E+01  2.132480600E-06  0.00000E+00  9.000E+00
#rwgt            1           1   3.3466671336885009E-002           5       32280           0
</event>
<event>
      5   9999  3.79277E-02  3.56093E+01 -1.00000E+00  1.48043E-01
      21    -1     0     0   512   501  0.000000000E+00  0.000000000E+00  7.632881585E+01  7.632881585E+01  0.000000000E+00  0.00000E+00  9.000E+00
      21    -1     0     0   501   502  0.000000000E+00  0.000000000E+00 -1.292900035E+03  1.292900035E+03  0.000000000E+00  0.00000E+00  9.000E+00
      25     1     1     2     0     0  7.950870008E+01 -3.855454252E+01 -1.146670715E+03  1.156843470E+03  1.250000000E+02  0.00000E+00  9.000E+00
      25     1     1     2     0     0 -4.525950678E+01  2.880689899E+01 -9.747669200E+01  1.673468430E+02  1.250000000E+02  0.00000E+00  9.000E+00
      21     1     1     2   512   502 -3.424919330E+01  9.747643529E+00  2.757618737E+01  4.503853801E+01  8.259061849E-07  0.00000E+00  9.000E+00
#rwgt            1           1   4.2926665860651490E-002           5       32634           0
</event>
<event>
      5   9999  3.79277E-02  1.53505E+01 -1.00000E+00  1.76444E-01
      21    -1     0     0   502   511  0.000000000E+00  0.000000000E+00  1.715829932E+02  1.715829932E+02  0.000000000E+00  0.00000E+00  9.000E+00
      21    -1     0     0   501   502  0.000000000E+00  0.000000000E+00 -4.476678311E+02  4.476678311E+02  0.000000000E+00  0.00000E+00  9.000E+00
      25     1     1     2     0     0 -1.626941199E+02 -6.773897447E+01 -2.900576948E+02  3.616855148E+02  1.250000000E+02  0.00000E+00  9.000E+00
      25     1     1     2     0     0  1.508505936E+02  7.750466906E+01 -2.831410060E+01  2.125783705E+02  1.250000000E+02  0.00000E+00  9.000E+00
      21     1     1     2   501   511  1.184352629E+01 -9.765694594E+00  4.228695749E+01  4.498693899E+01  4.768371582E-07  0.00000E+00  9.000E+00
#rwgt            1           1   4.4346510435362661E-002           5       32835           0
</event>
<event>
      5   9999  3.79277E-02  2.76680E+01 -1.00000E+00  1.55522E-01
      21    -1     0     0   512   501  0.000000000E+00  0.000000000E+00  1.290828503E+02  1.290828503E+02  0.000000000E+00  0.00000E+00  9.000E+00
      21    -1     0     0   501   502  0.000000000E+00  0.000000000E+00 -3.049815331E+02  3.049815331E+02  0.000000000E+00  0.00000E+00  9.000E+00
      25     1     1     2     0     0 -5.018309783E+01  5.764260680E+01 -2.017595341E+02  2.493449880E+02  1.250000000E+02  0.00000E+00  9.000E+00
      25     1     1     2     0     0  2.461530336E+01 -6.821648345E+01 -3.259109814E+00  1.445511106E+02  1.250000000E+02  0.00000E+00  9.000E+00
      21     1     1     2   512   502  2.556779447E+01  1.057387665E+01  2.911996108E+01  4.016828494E+01  9.536743164E-07  0.00000E+00  9.000E+00
#rwgt            1           1   2.6814758742650248E-002           5       33106           0
</event>
<event>
      5   9999  3.79277E-02  4.42953E+01 -1.00000E+00  1.42145E-01
      21    -1     0     0   502   501  0.000000000E+00  0.000000000E+00  1.096960954E+02  1.096960954E+02  0.000000000E+00  0.00000E+00  9.000E+00
      21    -1     0     0   511   502  0.000000000E+00  0.000000000E+00 -6.724612158E+02  6.724612158E+02  0.000000000E+00  0.00000E+00  9.000E+00
      25     1     1     2     0     0 -1.884839382E+02  9.123503794E+01 -1.267755720E+02  2.748582776E+02  1.250000000E+02  0.00000E+00  9.000E+00
      25     1     1     2     0     0  1.585202704E+02 -5.861217894E+01 -3.173240285E+02  3.806357875E+02  1.250000000E+02  0.00000E+00  9.000E+00
      21     1     1     2   511   501  2.996366777E+01 -3.262285900E+01 -1.186655198E+02  1.266632461E+02  1.348699152E-06  0.00000E+00  9.000E+00
#rwgt            1           1   3.6885875949300345E-002           5       33200           0
</event>
<event>
      5   9999  3.79277E-02  8.30918E+01 -1.00000E+00  1.27557E-01
      21    -1     0     0   502   512  0.000000000E+00  0.000000000E+00  1.965853430E+02  1.965853430E+02  0.000000000E+00  0.00000E+00  9.000E+00
      21    -1     0     0   501   502  0.000000000E+00  0.000000000E+00 -2.639824058E+03  2.639824058E+03  0.000000000E+00  0.00000E+00  9.000E+00
      25     1     1     2     0     0  1.636997746E+02  1.223020724E+02 -1.392408477E+03  1.412862973E+03  1.250000000E+02  0.00000E+00  9.000E+00
      25     1     1     2     0     0 -1.852836063E+02 -4.206253321E+01 -1.216835686E+03  1.237906846E+03  1.250000000E+02  0.00000E+00  9.000E+00
      21     1     1     2   501   512  2.158383170E+01 -8.023953915E+01  1.660054486E+02  1.856395820E+02  5.046370146E-06  0.00000E+00  9.000E+00
#rwgt            1           1   9.6614687410034334E-003           5       33361           0
</event>
<event>
      5   9999  3.79277E-02  1.31504E+02 -1.00000E+00  1.18705E-01
       2    -1     0     0   502     0  0.000000000E+00  0.000000000E+00  1.311658212E+03  1.311658212E+03  0.000000000E+00  0.00000E+00  9.000E+00
      21    -1     0     0   501   502  0.000000000E+00  0.000000000E+00 -1.742537094E+02  1.742537094E+02  0.000000000E+00  0.00000E+00  9.000E+00
      25     1     1     2     0     0  1.262319366E+02  2.499993678E+02  1.256112499E+02  3.314172171E+02  1.250000000E+02  0.00000E+00  9.000E+00
      25     1     1     2     0     0 -6.294431390E+01 -1.347254920E+02  7.455840665E+01  2.080790735E+02  1.250000000E+02  0.00000E+00  9.000E+00
       2     1     1     2   501     0 -6.328762265E+01 -1.152738758E+02  9.372348462E+02  9.464156309E+02  1.525878906E-05  0.00000E+00  9.000E+00
#rwgt            1           1   2.3528244301577121E-002           5       33432           0
</event>
<event>
      5   9999  3.79277E-02  5.05490E+01 -1.00000E+00  1.38805E-01
      21    -1     0     0   511   501  0.000000000E+00  0.000000000E+00  3.890640258E+02  3.890640258E+02  0.000000000E+00  0.00000E+00  9.000E+00
      21    -1     0     0   501   502  0.000000000E+00  0.000000000E+00 -1.177705640E+02  1.177705640E+02  0.000000000E+00  0.00000E+00  9.000E+00
      25     1     1     2     0     0 -1.422997575E+01 -9.288698808E+01  1.674462119E+02  2.291150773E+02  1.250000000E+02  0.00000E+00  9.000E+00
      25     1     1     2     0     0  2.930024092E+01  1.411372790E+02  3.772725642E+01  1.944905692E+02  1.250000000E+02  0.00000E+00  9.000E+00
      21     1     1     2   511   502 -1.507026517E+01 -4.825029090E+01  6.611999340E+01  8.322894323E+01  9.536743164E-07  0.00000E+00  9.000E+00
#rwgt            1           1   8.5608322514114776E-003           5       33506           0
</event>
<event>
      5   9999  3.79277E-02  9.84079E+01 -1.00000E+00  1.24142E-01
      21    -1     0     0   502   512  0.000000000E+00  0.000000000E+00  7.880125567E+01  7.880125567E+01  0.000000000E+00  0.00000E+00  9.000E+00
      21    -1     0     0   501   502  0.000000000E+00  0.000000000E+00 -8.467330262E+02  8.467330262E+02  0.000000000E+00  0.00000E+00  9.000E+00
      25     1     1     2     0     0  1.360902902E+02 -2.946039668E+01 -6.049550488E+02  6.332330480E+02  1.250000000E+02  0.00000E+00  9.000E+00
      25     1     1     2     0     0 -3.774073283E+01  3.284832407E+01 -1.334207629E+02  1.895507196E+02  1.250000000E+02  0.00000E+00  9.000E+00
      21     1     1     2   501   512 -9.834955735E+01 -3.387927389E+00 -2.955595884E+01  1.027505143E+02  2.336015456E-06  0.00000E+00  9.000E+00
#rwgt            1           1   4.0040806295357598E-002           5       33588           0
</event>
<event>
      5   9999  3.79277E-02  1.18450E+01 -1.00000E+00  1.87624E-01
      21    -1     0     0   502   501  0.000000000E+00  0.000000000E+00  1.796103652E+03  1.796103652E+03  0.000000000E+00  0.00000E+00  9.000E+00
      21    -1     0     0   501   511  0.000000000E+00  0.000000000E+00 -3.071270753E+01  3.071270753E+01  0.000000000E+00  0.00000E+00  9.000E+00
      25     1     1     2     0     0 -4.782666873E+00 -1.401872529E+02  3.883243501E+02  4.313886191E+02  1.250000000E+02  0.00000E+00  9.000E+00
      25     1     1     2     0     0  7.981838909E+00  1.287825010E+02  1.369802708E+03  1.381532881E+03  1.250000000E+02  0.00000E+00  9.000E+00
      21     1     1     2   502   511 -3.199172036E+00  1.140475193E+01  7.263885816E+00  1.389485896E+01  3.039252468E-07  0.00000E+00  9.000E+00
#rwgt            1           1   1.9621757617903746E-002           5       33654           0
</event>
<event>
      5   9999  3.79277E-02  7.15061E+01 -1.00000E+00  1.30754E-01
      21    -1     0     0   502   501  0.000000000E+00  0.000000000E+00  3.040507311E+02  3.040507311E+02  0.000000000E+00  0.00000E+00  9.000E+00
      21    -1     0     0   512   502  0.000000000E+00  0.000000000E+00 -1.388574797E+02  1.388574797E+02  0.000000000E+00  0.00000E+00  9.000E+00
      25     1     1     2     0     0  1.244253250E+02  2.397906679E+01  1.396484637E+02  2.262373766E+02  1.250000000E+02  0.00000E+00  9.000E+00
      25     1     1     2     0     0 -5.439351116E+01 -3.842421634E+01  3.089793154E+01  1.449646737E+02  1.250000000E+02  0.00000E+00  9.000E+00
      21     1     1     2   512   501 -7.003181383E+01  1.444514955E+01 -5.353143839E+00  7.170616043E+01  1.795079749E-06  0.00000E+00  9.000E+00
#rwgt            1           1   3.6487514193913585E-002           5       33946           0
</event>
<event>
      5   9999  3.79277E-02  3.56616E+01 -1.00000E+00  1.48002E-01
       1    -1     0     0   502     0  0.000000000E+00  0.000000000E+00  1.567041789E+03  1.567041789E+03  0.000000000E+00  0.00000E+00  9.000E+00
      21    -1     0     0   501   502  0.000000000E+00  0.000000000E+00 -6.830438264E+01  6.830438264E+01  0.000000000E+00  0.00000E+00  9.000E+00
      25     1     1     2     0     0  1.432039502E+01 -3.369548595E+01  2.027216220E+01  1.318196497E+02  1.250000000E+02  0.00000E+00  9.000E+00
      25     1     1     2     0     0  2.104698555E+01  2.912399068E+01  3.328856751E+02  3.573920188E+02  1.250000000E+02  0.00000E+00  9.000E+00
       1     1     1     2   501     0 -3.536738057E+01  4.571495269E+00  1.145579569E+03  1.146134503E+03  1.525878906E-05  0.00000E+00  9.000E+00
#rwgt            1           1   3.4761774260106459E-002           5       34093           0
</event>
<event>
      5   9999  3.79277E-02  4.17608E+01 -1.00000E+00  1.43689E-01
      21    -1     0     0   502   511  0.000000000E+00  0.000000000E+00  2.163729267E+03  2.163729267E+03  0.000000000E+00  0.00000E+00  9.000E+00
      21    -1     0     0   501   502  0.000000000E+00  0.000000000E+00 -2.508578043E+01  2.508578043E+01  0.000000000E+00  0.00000E+00  9.000E+00
      25     1     1     2     0     0  7.522102668E+01  1.102302126E+02  5.905674262E+02  6.182263239E+02  1.250000000E+02  0.00000E+00  9.000E+00
      25     1     1     2     0     0 -3.793962353E+01 -1.290467610E+02  7.777832816E+02  7.991647606E+02  1.250000000E+02  0.00000E+00  9.000E+00
      21     1     1     2   501   511 -3.728140316E+01  1.881654842E+01  7.702927788E+02  7.714239629E+02  0.000000000E+00  0.00000E+00  9.000E+00
#rwgt            1           1   2.6844336247498886E-002           5       34203           0
</event>
<event>
      5   9999  3.79277E-02  7.99541E+01 -1.00000E+00  1.28362E-01
      21    -1     0     0   502   501  0.000000000E+00  0.000000000E+00  2.013756422E+02  2.013756422E+02  0.000000000E+00  0.00000E+00  9.000E+00
      21    -1     0     0   512   502  0.000000000E+00  0.000000000E+00 -2.116087279E+02  2.116087279E+02  0.000000000E+00  0.00000E+00  9.000E+00
      25     1     1     2     0     0 -5.113497906E+01  7.534152670E+01 -6.751777293E+01  1.687447226E+02  1.250000000E+02  0.00000E+00  9.000E+00
      25     1     1     2     0     0 -2.644425845E+01 -5.599935612E+01  8.040087174E+01  1.610109526E+02  1.250000000E+02  0.00000E+00  9.000E+00
      21     1     1     2   512   501  7.757923751E+01 -1.934217058E+01 -2.311618452E+01  8.322869482E+01  3.371747881E-07  0.00000E+00  9.000E+00
#rwgt            1           1   4.5117910519780972E-002           5       34353           0
</event>
<event>
      5   9999  3.79277E-02  1.45554E+01 -1.00000E+00  1.78624E-01
      21    -1     0     0   502   501  0.000000000E+00  0.000000000E+00  3.891974810E+02  3.891974810E+02  0.000000000E+00  0.00000E+00  9.000E+00
      21    -1     0     0   501   511  0.000000000E+00  0.000000000E+00 -1.053144946E+02  1.053144946E+02  0.000000000E+00  0.00000E+00  9.000E+00
      25     1     1     2     0     0  6.575139242E+01 -1.104831334E+02  3.598116301E+01  1.828918053E+02  1.250000000E+02  0.00000E+00  9.000E+00
      25     1     1     2     0     0 -5.421082615E+01  1.016132640E+02  2.424163074E+02  2.960654238E+02  1.250000000E+02  0.00000E+00  9.000E+00
      21     1     1     2   502   511 -1.154056627E+01  8.869869378E+00  5.485516038E+00  1.555474651E+01  3.039252468E-07  0.00000E+00  9.000E+00
#rwgt            1           1   3.5459013549142264E-002           5       34466           0
</event>
<event>
      5   9999  3.79277E-02  5.65262E+01 -1.00000E+00  1.36102E-01
      21    -1     0     0   502   512  0.000000000E+00  0.000000000E+00  1.699631195E+03  1.699631195E+03  0.000000000E+00  0.00000E+00  9.000E+00
      21    -1     0     0   501   502  0.000000000E+00  0.000000000E+00 -3.790469410E+02  3.790469410E+02  0.000000000E+00  0.00000E+00  9.000E+00
      25     1     1     2     0     0  1.832773359E+02 -6.898213202E+01 -2.121361229E+02  3.146042768E+02  1.250000000E+02  0.00000E+00  9.000E+00
      25     1     1     2     0     0 -2.384779869E+02  8.115152603E+01  5.657952054E+01  2.868511157E+02  1.250000000E+02  0.00000E+00  9.000E+00
      21     1     1     2   501   512  5.520065100E+01 -1.216939401E+01  1.476140857E+03  1.477222744E+03  0.000000000E+00  0.00000E+00  9.000E+00
#rwgt            1           1  0.24516203073336568                5       34870           0
</event>
<event>
      5   9999  3.79277E-02  1.64942E+02 -1.00000E+00  1.14782E-01
      21    -1     0     0   502   501  0.000000000E+00  0.000000000E+00  1.492111852E+02  1.492111852E+02  0.000000000E+00  0.00000E+00  9.000E+00
      21    -1     0     0   511   502  0.000000000E+00  0.000000000E+00 -8.445592510E+02  8.445592510E+02  0.000000000E+00  0.00000E+00  9.000E+00
      25     1     1     2     0     0 -5.297707497E+01  2.546146731E+01 -5.128399774E+02  5.311164648E+02  1.250000000E+02  0.00000E+00  9.000E+00
      25     1     1     2     0     0  3.505396617E+01 -1.894269866E+02 -1.904235616E+01  2.304321486E+02  1.250000000E+02  0.00000E+00  9.000E+00
      21     1     1     2   511   501  1.792310880E+01  1.639655193E+02 -1.634657322E+02  2.322218227E+02  0.000000000E+00  0.00000E+00  9.000E+00
#rwgt            2          11   2.5786789563012041E-003           5       35048           0
</event>
<event>
      5   9999  3.79277E-02  3.49152E+01 -1.00000E+00  1.48600E-01
       2    -1     0     0   502     0  0.000000000E+00  0.000000000E+00  2.361922706E+03  2.361922706E+03  0.000000000E+00  0.00000E+00  9.000E+00
      21    -1     0     0   501   502  0.000000000E+00  0.000000000E+00 -4.522679105E+01  4.522679105E+01  0.000000000E+00  0.00000E+00  9.000E+00
      25     1     1     2     0     0  1.191673930E+02  7.500592122E+01  3.321193860E+02  3.817787872E+02  1.250000000E+02  0.00000E+00  9.000E+00
      25     1     1     2     0     0 -8.541302986E+01 -8.393416559E+01  3.504527506E+02  3.908739697E+02  1.250000000E+02  0.00000E+00  9.000E+00
       2     1     1     2   501     0 -3.375436312E+01  8.928244372E+00  1.634123779E+03  1.634496741E+03  2.157918644E-05  0.00000E+00  9.000E+00
#rwgt            1           1   3.9583509174198644E-002           5       35083           0
</event>
<event>
      5   9999  3.79277E-02  1.47883E+02 -1.00000E+00  1.16639E-01
      21    -1     0     0   502   501  0.000000000E+00  0.000000000E+00  3.198042624E+02  3.198042624E+02  0.000000000E+00  0.00000E+00  9.000E+00
      21    -1     0     0   511   502  0.000000000E+00  0.000000000E+00 -3.825677910E+02  3.825677910E+02  0.000000000E+00  0.00000E+00  9.000E+00
      25     1     1     2     0     0  1.204361160E+02  1.817984614E+00 -1.311187466E+02  2.175437630E+02  1.250000000E+02  0.00000E+00  9.000E+00
      25     1     1     2     0     0  9.347943385E+00  6.907188193E+01  2.267438312E+02  2.681344325E+02  1.250000000E+02  0.00000E+00  9.000E+00
      21     1     1     2   511   501 -1.297840594E+02 -7.088986655E+01 -1.583886132E+02  2.166938579E+02  4.264961200E-06  0.00000E+00  9.000E+00
#rwgt            1           1   3.5285262504169412E-002           5       35190           0
</event>
<event>
      5   9999  3.79277E-02  1.22408E+01 -1.00000E+00  1.86125E-01
      21    -1     0     0   502   501  0.000000000E+00  0.000000000E+00  1.032935770E+02  1.032935770E+02  0.000000000E+00  0.00000E+00  9.000E+00
      21    -1     0     0   501   512  0.000000000E+00  0.000000000E+00 -1.297375516E+03  1.297375516E+03  0.000000000E+00  0.00000E+00  9.000E+00
      25     1     1     2     0     0 -2.575435573E+02 -5.284300426E+01 -4.709789947E+02  5.536851817E+02  1.250000000E+02  0.00000E+00  9.000E+00
      25     1     1     2     0     0  2.483088673E+02  4.480826209E+01 -2.585825014E+02  3.823022155E+02  1.250000000E+02  0.00000E+00  9.000E+00
      21     1     1     2   502   512  9.234689941E+00  8.034742177E+00 -4.645204429E+02  4.646816958E+02  5.394796609E-06  0.00000E+00  9.000E+00
#rwgt            1           1   3.4640147257245575E-002           5       35264           0
</event>
<event>
      5   9999  3.79277E-02  5.34715E+01 -1.00000E+00  1.37432E-01
      21    -1     0     0   511   501  0.000000000E+00  0.000000000E+00  4.879754009E+02  4.879754009E+02  0.000000000E+00  0.00000E+00  9.000E+00
      21    -1     0     0   501   502  0.000000000E+00  0.000000000E+00 -1.130634751E+02  1.130634751E+02  0.000000000E+00  0.00000E+00  9.000E+00
      25     1     1     2     0     0  9.493902120E+01  8.984257509E+01  2.883399499E+02  3.403674966E+02  1.250000000E+02  0.00000E+00  9.000E+00
      25     1     1     2     0     0 -4.672656397E+01 -6.671759637E+01 -1.079643071E+01  1.495866717E+02  1.250000000E+02  0.00000E+00  9.000E+00
      21     1     1     2   511   502 -4.821245723E+01 -2.312497873E+01  9.736840660E+01  1.110847077E+02  1.348699152E-06  0.00000E+00  9.000E+00
#rwgt            1           1   4.2412854416861420E-002           5       35448           0
</event>
<event>
      5   9999  3.79277E-02  1.56992E+01 -1.00000E+00  1.75540E-01
      21    -1     0     0   502   501  0.000000000E+00  0.000000000E+00  1.692627358E+02  1.692627358E+02  0.000000000E+00  0.00000E+00  9.000E+00
      21    -1     0     0   512   502  0.000000000E+00  0.000000000E+00 -5.414792060E+02  5.414792060E+02  0.000000000E+00  0.00000E+00  9.000E+00
      25     1     1     2     0     0  9.895797134E+01 -9.000104733E+01 -2.353148153E+02  2.981458215E+02  1.250000000E+02  0.00000E+00  9.000E+00
      25     1     1     2     0     0 -9.584941817E+01  7.461266152E+01  8.235846529E+01  1.927746794E+02  1.250000000E+02  0.00000E+00  9.000E+00
      21     1     1     2   512   501 -3.108553166E+00  1.538838581E+01 -2.192601203E+02  2.198214408E+02  0.000000000E+00  0.00000E+00  9.000E+00
#rwgt            1           1   4.3915797425088221E-002           5       35732           0
</event>
<event>
      5   9999 -3.79277E-02  5.03061E+01 -1.00000E+00  1.38924E-01
      21    -1     0     0   502   511  0.000000000E+00  0.000000000E+00  8.455767110E+02  8.455767110E+02  0.000000000E+00  0.00000E+00  9.000E+00
      21    -1     0     0   501   502  0.000000000E+00  0.000000000E+00 -1.516424648E+03  1.516424648E+03  0.000000000E+00  0.00000E+00  9.000E+00
      25     1     1     2     0     0 -1.108302725E+02 -2.438076313E+02 -3.651763906E+02  4.697917694E+02  1.250000000E+02  0.00000E+00  9.000E+00
      25     1     1     2     0     0  1.513358970E+02  2.139747433E+02 -1.078928498E+03  1.117317971E+03  1.250000000E+02  0.00000E+00  9.000E+00
      21     1     1     2   501   511 -4.050562449E+01  2.983288800E+01  7.732569518E+02  7.748916184E+02  1.525878906E-05  0.00000E+00  9.000E+00
#rwgt            1           1  -3.8497186135397078E-002           5       36047           0
</event>
<event>
      5   9999  3.79277E-02  1.63021E+01 -1.00000E+00  1.74044E-01
      21    -1     0     0   512   501  0.000000000E+00  0.000000000E+00  1.772156838E+03  1.772156838E+03  0.000000000E+00  0.00000E+00  9.000E+00
      21    -1     0     0   501   502  0.000000000E+00  0.000000000E+00 -2.457899605E+01  2.457899605E+01  0.000000000E+00  0.00000E+00  9.000E+00
      25     1     1     2     0     0 -6.439917085E+01  8.721095353E+01  8.574241845E+02  8.732435146E+02  1.250000000E+02  0.00000E+00  9.000E+00
      25     1     1     2     0     0  7.755915449E+01 -7.758936894E+01  4.017204591E+02  4.347871432E+02  1.250000000E+02  0.00000E+00  9.000E+00
      21     1     1     2   512   502 -1.315998364E+01 -9.621584584E+00  4.884331980E+02  4.887051759E+02  1.078959322E-05  0.00000E+00  9.000E+00
#rwgt            1           1   5.4140951816212778E-002           5       36247           0
</event>
<event>
      5   9999  3.79277E-02  2.07700E+01 -1.00000E+00  1.65027E-01
      21    -1     0     0   502   501  0.000000000E+00  0.000000000E+00  3.159460972E+02  3.159460972E+02  0.000000000E+00  0.00000E+00  9.000E+00
      21    -1     0     0   511   502  0.000000000E+00  0.000000000E+00 -1.941848271E+02  1.941848271E+02  0.000000000E+00  0.00000E+00  9.000E+00
      25     1     1     2     0     0 -1.388699432E+02  1.213049319E+02 -1.529252605E+01  2.232904140E+02  1.250000000E+02  0.00000E+00  9.000E+00
      25     1     1     2     0     0  1.219472695E+02 -1.092627155E+02  1.562557722E+02  2.585543345E+02  1.250000000E+02  0.00000E+00  9.000E+00
      21     1     1     2   511   501  1.692267376E+01 -1.204221637E+01 -1.920197601E+01  2.828617586E+01  0.000000000E+00  0.00000E+00  9.000E+00
#rwgt            1           1   3.0399969708893557E-002           5       36436           0
</event>
<event>
      5   9999  3.79277E-02  3.08018E+01 -1.00000E+00  1.52248E-01
      21    -1     0     0   502   501  0.000000000E+00  0.000000000E+00  3.741995902E+02  3.741995902E+02  0.000000000E+00  0.00000E+00  9.000E+00
      21    -1     0     0   501   512  0.000000000E+00  0.000000000E+00 -3.139239578E+02  3.139239578E+02  0.000000000E+00  0.00000E+00  9.000E+00
      25     1     1     2     0     0  1.199881769E+02 -3.679429675E+01  2.204137313E+02  2.827688028E+02  1.250000000E+02  0.00000E+00  9.000E+00
      25     1     1     2     0     0 -1.204239047E+02  5.995532043E+00  5.948727473E+01  1.835799528E+02  1.250000000E+02  0.00000E+00  9.000E+00
      21     1     1     2   502   512  4.357277976E-01  3.079876471E+01 -2.196253737E+02  2.217747924E+02  0.000000000E+00  0.00000E+00  9.000E+00
#rwgt            1           1   4.6746971556778524E-002           5       36721           0
</event>
<event>
      5   9999  3.79277E-02  1.04320E+02 -1.00000E+00  1.23007E-01
      21    -1     0     0   502   501  0.000000000E+00  0.000000000E+00  4.825127307E+01  4.825127307E+01  0.000000000E+00  0.00000E+00  9.000E+00
      21    -1     0     0   501   511  0.000000000E+00  0.000000000E+00 -9.373247293E+02  9.373247293E+02  0.000000000E+00  0.00000E+00  9.000E+00
      25     1     1     2     0     0 -4.105421565E+01  2.429852674E+00 -1.679751972E+02  2.133823321E+02  1.250000000E+02  0.00000E+00  9.000E+00
      25     1     1     2     0     0 -2.869802658E+01 -8.000158301E+01 -2.724146041E+02  3.115422067E+02  1.250000000E+02  0.00000E+00  9.000E+00
      21     1     1     2   502   511  6.975224223E+01  7.757173033E+01 -4.486836549E+02  4.606514635E+02  7.629394531E-06  0.00000E+00  9.000E+00
#rwgt            1           1   1.4377718703689561E-002           5       36855           0
</event>
<event>
      5   9999  3.79277E-02  1.59365E+01 -1.00000E+00  1.74941E-01
       2    -1     0     0   502     0  0.000000000E+00  0.000000000E+00  2.898791483E+03  2.898791483E+03  0.000000000E+00  0.00000E+00  9.000E+00
      21    -1     0     0   501   502  0.000000000E+00  0.000000000E+00 -2.582118541E+02  2.582118541E+02  0.000000000E+00  0.00000E+00  9.000E+00
      25     1     1     2     0     0 -9.292705025E+01 -2.548777380E+01 -1.987957678E+02  2.538302988E+02  1.250000000E+02  0.00000E+00  9.000E+00
      25     1     1     2     0     0  1.081855113E+02  2.088879407E+01  1.858940470E+02  2.496438329E+02  1.250000000E+02  0.00000E+00  9.000E+00
       2     1     1     2   501     0 -1.525846110E+01  4.598979729E+00  2.653481350E+03  2.653529206E+03  6.103515625E-05  0.00000E+00  9.000E+00
#rwgt            1           1   4.0734768614490165E-002           5       36950           0
</event>
<event>
      5   9999  3.79277E-02  9.83361E+01 -1.00000E+00  1.24157E-01
       2    -1     0     0   502     0  0.000000000E+00  0.000000000E+00  1.123290370E+03  1.123290370E+03  0.000000000E+00  0.00000E+00  9.000E+00
      21    -1     0     0   501   502  0.000000000E+00  0.000000000E+00 -5.144372302E+02  5.144372302E+02  0.000000000E+00  0.00000E+00  9.000E+00
      25     1     1     2     0     0 -4.509260078E+01 -3.059384381E+01 -4.535227010E+02  4.735791024E+02  1.250000000E+02  0.00000E+00  9.000E+00
      25     1     1     2     0     0 -4.314183413E+01  7.400673344E+01  7.001800222E+01  1.669303300E+02  1.250000000E+02  0.00000E+00  9.000E+00
       2     1     1     2   501     0  8.823443491E+01 -4.341288963E+01  9.923578384E+02  9.972181677E+02  1.078959322E-05  0.00000E+00  9.000E+00
#rwgt            1           1   4.7989919823864968E-002           5       37190           0
</event>
<event>
      5   9999  3.79277E-02  8.53268E+01 -1.00000E+00  1.27009E-01
      21    -1     0     0   511   501  0.000000000E+00  0.000000000E+00  4.979677550E+02  4.979677550E+02  0.000000000E+00  0.00000E+00  9.000E+00
      21    -1     0     0   501   502  0.000000000E+00  0.000000000E+00 -1.829428802E+02  1.829428802E+02  0.000000000E+00  0.00000E+00  9.000E+00
      25     1     1     2     0     0  1.200188670E+02  7.314553279E+01  4.388201153E+01  1.931461321E+02  1.250000000E+02  0.00000E+00  9.000E+00
      25     1     1     2     0     0 -1.094420009E+02  1.152320821E+01 -3.480801443E+01  1.701379844E+02  1.250000000E+02  0.00000E+00  9.000E+00
      21     1     1     2   511   502 -1.057686609E+01 -8.466874100E+01  3.059508777E+02  3.176265187E+02  3.814697266E-06  0.00000E+00  9.000E+00
#rwgt            1           1   4.4597146188550291E-002           5       37249           0
</event>
<event>
      5   9999  3.79277E-02  1.27955E+02 -1.00000E+00  1.19197E-01
      21    -1     0     0   502   501  0.000000000E+00  0.000000000E+00  9.699537468E+02  9.699537468E+02  0.000000000E+00  0.00000E+00  9.000E+00
      21    -1     0     0   501   512  0.000000000E+00  0.000000000E+00 -8.104228013E+01  8.104228013E+01  0.000000000E+00  0.00000E+00  9.000E+00
      25     1     1     2     0     0 -1.660368786E+01 -1.624865294E+01  3.692909859E+02  3.905643781E+02  1.250000000E+02  0.00000E+00  9.000E+00
      25     1     1     2     0     0  1.400750497E+02 -1.732657353E+01  4.955880993E+02  5.302393741E+02  1.250000000E+02  0.00000E+00  9.000E+00
      21     1     1     2   502   512 -1.234713618E+02  3.357522647E+01  2.403238142E+01  1.301922747E+02  2.996875069E-06  0.00000E+00  9.000E+00
#rwgt            1           1   6.3233379842298099E-002           5       37300           0
</event>
<event>
      5   9999  3.79277E-02  3.46396E+01 -1.00000E+00  1.48825E-01
      21    -1     0     0   502   501  0.000000000E+00  0.000000000E+00  2.025999380E+03  2.025999380E+03  0.000000000E+00  0.00000E+00  9.000E+00
      21    -1     0     0   501   511  0.000000000E+00  0.000000000E+00 -3.498993394E+01  3.498993394E+01  0.000000000E+00  0.00000E+00  9.000E+00
      25     1     1     2     0     0 -1.398468393E+02  1.323949494E+02  1.134080606E+03  1.157086592E+03  1.250000000E+02  0.00000E+00  9.000E+00
      25     1     1     2     0     0  1.263973690E+02 -1.643169106E+02  8.111087371E+02  8.464624772E+02  1.250000000E+02  0.00000E+00  9.000E+00
      21     1     1     2   502   511  1.344947030E+01  3.192196113E+01  4.582010347E+01  5.744024492E+01  1.168007728E-06  0.00000E+00  9.000E+00
#rwgt            1           1   8.0114108533671860E-002           5       37356           0
</event>
<event>
      5   9999  3.79277E-02  1.31092E+02 -1.00000E+00  1.18761E-01
      21    -1     0     0   502   512  0.000000000E+00  0.000000000E+00  1.486953387E+03  1.486953387E+03  0.000000000E+00  0.00000E+00  9.000E+00
      21    -1     0     0   501   502  0.000000000E+00  0.000000000E+00 -6.477033068E+01  6.477033068E+01  0.000000000E+00  0.00000E+00  9.000E+00
      25     1     1     2     0     0 -6.924090392E+01 -2.558519846E+02  5.674738436E+02  6.386752727E+02  1.250000000E+02  0.00000E+00  9.000E+00
      25     1     1     2     0     0  5.399999338E+00  1.413552353E+02  5.437460432E+02  5.755825068E+02  1.250000000E+02  0.00000E+00  9.000E+00
      21     1     1     2   501   512  6.384090459E+01  1.144967493E+02  3.109631699E+02  3.374659386E+02  6.607249480E-06  0.00000E+00  9.000E+00
#rwgt            1           1   1.5037072041166390E-002           5       37521           0
</event>
<event>
      5   9999 -3.79277E-02  1.56063E+02 -1.00000E+00  1.15716E-01
      21    -1     0     0   502   501  0.000000000E+00  0.000000000E+00  3.265662922E+01  3.265662922E+01  0.000000000E+00  0.00000E+00  9.000E+00
       3    -1     0     0   501     0  0.000000000E+00  0.000000000E+00 -3.627990803E+03  3.627990803E+03  0.000000000E+00  0.00000E+00  9.000E+00
      25     1     1     2     0     0 -1.790256067E+02  1.992714439E+02 -1.884488652E+03  1.907532898E+03  1.250000000E+02  0.00000E+00  9.000E+00
      25     1     1     2     0     0  2.397920504E+01 -1.814843470E+02 -8.622284448E+02  8.902665115E+02  1.250000000E+02  0.00000E+00  9.000E+00
       3     1     1     2   502     0  1.550464017E+02 -1.778709689E+01 -8.486170767E+02  8.628480227E+02  1.525878906E-05  0.00000E+00  9.000E+00
#rwgt            1           1 -0.14354417941923300                5       37597           0
</event>
<event>
      5   9999 -3.79277E-02  2.58432E+01 -1.00000E+00  1.57679E-01
      21    -1     0     0   511   501  0.000000000E+00  0.000000000E+00  3.029719333E+02  3.029719333E+02  0.000000000E+00  0.00000E+00  9.000E+00
      21    -1     0     0   501   502  0.000000000E+00  0.000000000E+00 -1.331813876E+03  1.331813876E+03  0.000000000E+00  0.00000E+00  9.000E+00
      25     1     1     2     0     0  3.667373016E+01  1.797899033E+02 -6.221475899E+02  6.605770171E+02  1.250000000E+02  0.00000E+00  9.000E+00
      25     1     1     2     0     0 -1.893596068E+01 -1.985846258E+02 -6.697335445E+02  7.099031235E+02  1.250000000E+02  0.00000E+00  9.000E+00
      21     1     1     2   511   502 -1.773776948E+01  1.879472253E+01  2.630391917E+02  2.643056686E+02  6.607249480E-06  0.00000E+00  9.000E+00
#rwgt            1           1  -9.2088368720154978E-003           5       37652           0
</event>
<event>
      5   9999  3.79277E-02  4.19929E+01 -1.00000E+00  1.43543E-01
      -3    -1     0     0     0   501  0.000000000E+00  0.000000000E+00  3.705698577E+02  3.705698577E+02  0.000000000E+00  0.00000E+00  9.000E+00
      21    -1     0     0   501   502  0.000000000E+00  0.000000000E+00 -4.179931617E+02  4.179931617E+02  0.000000000E+00  0.00000E+00  9.000E+00
      25     1     1     2     0     0  1.539889044E+02 -1.881123905E+02 -5.373890207E+01  2.785888076E+02  1.250000000E+02  0.00000E+00  9.000E+00
      25     1     1     2     0     0 -1.599551995E+02  2.296792478E+02 -1.548508414E+02  3.434268566E+02  1.250000000E+02  0.00000E+00  9.000E+00
      -3     1     1     2     0   502  5.966295081E+00 -4.156685732E+01  1.611664395E+02  1.665473552E+02  0.000000000E+00  0.00000E+00  9.000E+00
#rwgt            1           1   3.4379230663071060E-002           5       37918           0
</event>
<event>
      5   9999 -3.79277E-02  3.04447E+01 -1.00000E+00  1.52597E-01
      21    -1     0     0   502   501  0.000000000E+00  0.000000000E+00  1.224022312E+03  1.224022312E+03  0.000000000E+00  0.00000E+00  9.000E+00
      21    -1     0     0   511   502  0.000000000E+00  0.000000000E+00 -1.403443223E+03  1.403443223E+03  0.000000000E+00  0.00000E+00  9.000E+00
      25     1     1     2     0     0 -1.027029696E+02 -1.142877771E+02  3.217796555E+02  3.778580985E+02  1.250000000E+02  0.00000E+00  9.000E+00
      25     1     1     2     0     0  7.235979372E+01  1.118032079E+02  8.644915619E+02  8.835760056E+02  1.250000000E+02  0.00000E+00  9.000E+00
      21     1     1     2   511   501  3.034317584E+01  2.484569229E+00 -1.365692129E+03  1.366031431E+03  2.157918644E-05  0.00000E+00  9.000E+00
#rwgt            1           1  -2.2551303865560854E-002           5       38108           0
</event>
<event>
      5   9999  3.79277E-02  1.88852E+01 -1.00000E+00  1.68451E-01
      21    -1     0     0   502   512  0.000000000E+00  0.000000000E+00  3.964697513E+02  3.964697513E+02  0.000000000E+00  0.00000E+00  9.000E+00
      21    -1     0     0   501   502  0.000000000E+00  0.000000000E+00 -1.918531524E+02  1.918531524E+02  0.000000000E+00  0.00000E+00  9.000E+00
      25     1     1     2     0     0  5.189080511E+01  1.426958490E+02  4.242401358E+01  2.011953228E+02  1.250000000E+02  0.00000E+00  9.000E+00
      25     1     1     2     0     0 -3.309884097E+01 -1.408217499E+02 -3.042212999E+01  1.935892675E+02  1.250000000E+02  0.00000E+00  9.000E+00
      21     1     1     2   501   512 -1.879196415E+01 -1.874099124E+00  1.926147153E+02  1.935383133E+02  2.697398305E-06  0.00000E+00  9.000E+00
#rwgt            1           1   3.2815978949545598E-002           5       38360           0
</event>
<event>
      5   9999  3.79277E-02  2.68966E+01 -1.00000E+00  1.56408E-01
      21    -1     0     0   502   501  0.000000000E+00  0.000000000E+00  3.229107986E+02  3.229107986E+02  0.000000000E+00  0.00000E+00  9.000E+00
      21    -1     0     0   511   502  0.000000000E+00  0.000000000E+00 -1.756033821E+02  1.756033821E+02  0.000000000E+00  0.00000E+00  9.000E+00
      25     1     1     2     0     0 -1.341206189E+02  8.963431091E+01  1.590215193E+02  2.587189474E+02  1.250000000E+02  0.00000E+00  9.000E+00
      25     1     1     2     0     0  1.525537094E+02 -7.004731122E+01  2.633185526E+00  2.093112365E+02  1.250000000E+02  0.00000E+00  9.000E+00
      21     1     1     2   511   501 -1.843309049E+01 -1.958699968E+01 -1.434728839E+01  3.048399688E+01  0.000000000E+00  0.00000E+00  9.000E+00
#rwgt            1           1   2.9968563119252653E-002           5       38497           0
</event>
<event>
      5   9999  3.79277E-02  1.21740E+01 -1.00000E+00  1.86373E-01
      21    -1     0     0   512   501  0.000000000E+00  0.000000000E+00  1.793505904E+02  1.793505904E+02  0.000000000E+00  0.00000E+00  9.000E+00
      21    -1     0     0   501   502  0.000000000E+00  0.000000000E+00 -2.445788702E+02  2.445788702E+02  0.000000000E+00  0.00000E+00  9.000E+00
      25     1     1     2     0     0 -1.363883204E+02 -2.021913209E+00  3.670654866E+01  1.886219308E+02  1.250000000E+02  0.00000E+00  9.000E+00
      25     1     1     2     0     0  1.470568342E+02  7.886092045E+00 -1.084214689E+02  2.215132453E+02  1.250000000E+02  0.00000E+00  9.000E+00
      21     1     1     2   512   502 -1.066851380E+01 -5.864178836E+00  6.486640349E+00  1.379428444E+01  1.884864366E-07  0.00000E+00  9.000E+00
#rwgt            1           1   3.2469816060568216E-002           5       38671           0
</event>
<event>
      5   9999  3.79277E-02  1.46198E+02 -1.00000E+00  1.16837E-01
      21    -1     0     0   502   501  0.000000000E+00  0.000000000E+00  3.785285624E+02  3.785285624E+02  0.000000000E+00  0.00000E+00  9.000E+00
      21    -1     0     0   511   502  0.000000000E+00  0.000000000E+00 -3.104914074E+02  3.104914074E+02  0.000000000E+00  0.00000E+00  9.000E+00
      25     1     1     2     0     0  2.120383683E+02 -5.778039216E+01 -3.010653466E+01  2.546178446E+02  1.250000000E+02  0.00000E+00  9.000E+00
      25     1     1     2     0     0 -1.470780027E+02 -7.319248232E+01  1.737418239E+02  2.698153067E+02  1.250000000E+02  0.00000E+00  9.000E+00
      21     1     1     2   511   501 -6.496036557E+01  1.309728745E+02 -7.559813422E+01  1.645868186E+02  1.651812370E-06  0.00000E+00  9.000E+00
#rwgt            1           1   4.7566065404838653E-002           5       38833           0
</event>
<event>
      5   9999  3.79277E-02  4.22266E+01 -1.00000E+00  1.43396E-01
      21    -1     0     0   502   512  0.000000000E+00  0.000000000E+00  5.533592490E+02  5.533592490E+02  0.000000000E+00  0.00000E+00  9.000E+00
      21    -1     0     0   501   502  0.000000000E+00  0.000000000E+00 -9.645839086E+01  9.645839086E+01  0.000000000E+00  0.00000E+00  9.000E+00
      25     1     1     2     0     0 -8.915050219E+01  1.421571978E+02  1.050902624E+02  2.341483379E+02  1.250000000E+02  0.00000E+00  9.000E+00
      25     1     1     2     0     0  7.583376055E+01 -1.020853344E+02  2.978831501E+02  3.471765341E+02  1.250000000E+02  0.00000E+00  9.000E+00
      21     1     1     2   501   512  1.331674165E+01 -4.007186341E+01  5.392744573E+01  6.849276786E+01  0.000000000E+00  0.00000E+00  9.000E+00
#rwgt            1           1   3.0093088690348872E-002           5       38930           0
</event>
<event>
      5   9999 -3.79277E-02  8.21133E+01 -1.00000E+00  1.27804E-01
      21    -1     0     0   502   501  0.000000000E+00  0.000000000E+00  6.148645535E+02  6.148645535E+02  0.000000000E+00  0.00000E+00  9.000E+00
      21    -1     0     0   511   502  0.000000000E+00  0.000000000E+00 -1.088236398E+02  1.088236398E+02  0.000000000E+00  0.00000E+00  9.000E+00
      25     1     1     2     0     0  1.556598938E+02  6.902724200E+01  3.747828832E+02  4.302115436E+02  1.250000000E+02  0.00000E+00  9.000E+00
      25     1     1     2     0     0 -8.027516488E+01 -1.015807262E+02  8.246196910E+01  1.979588906E+02  1.250000000E+02  0.00000E+00  9.000E+00
      21     1     1     2   511   501 -7.538472895E+01  3.255348422E+01  4.879606138E+01  9.551775908E+01  6.743495762E-07  0.00000E+00  9.000E+00
#rwgt            1           1 -0.20781158810595762                5       39123           0
</event>
<event>
      5   9999  3.79277E-02  5.82875E+01 -1.00000E+00  1.35379E-01
      21    -1     0     0   502   512  0.000000000E+00  0.000000000E+00  3.084232512E+02  3.084232512E+02  0.000000000E+00  0.00000E+00  9.000E+00
      21    -1     0     0   501   502  0.000000000E+00  0.000000000E+00 -3.721763677E+02  3.721763677E+02  0.000000000E+00  0.00000E+00  9.000E+00
      25     1     1     2     0     0  3.950822847E+00  1.123816601E+02 -2.996534735E+02  3.436021692E+02  1.250000000E+02  0.00000E+00  9.000E+00
      25     1     1     2     0     0 -4.662671386E+01 -7.268024696E+01  2.336078842E+02  2.786648746E+02  1.250000000E+02  0.00000E+00  9.000E+00
      21     1     1     2   501   512  4.267589102E+01 -3.970141318E+01  2.292472759E+00  5.833257507E+01  1.208373006E-06  0.00000E+00  9.000E+00
#rwgt            1           1   4.4103187075141964E-002           5       39299           0
</event>
<event>
      5   9999  3.79277E-02  2.26085E+01 -1.00000E+00  1.62093E-01
      21    -1     0     0   511   501  0.000000000E+00  0.000000000E+00  8.697864797E+02  8.697864797E+02  0.000000000E+00  0.00000E+00  9.000E+00
      21    -1     0     0   501   502  0.000000000E+00  0.000000000E+00 -1.026778505E+02  1.026778505E+02  0.000000000E+00  0.00000E+00  9.000E+00
      25     1     1     2     0     0 -3.131477402E+01  1.343533098E+02  2.504766273E+02  3.120816684E+02  1.250000000E+02  0.00000E+00  9.000E+00
      25     1     1     2     0     0  5.297668209E+01 -1.408268757E+02  6.201844153E+01  2.052072729E+02  1.250000000E+02  0.00000E+00  9.000E+00
      21     1     1     2   511   502 -2.166190807E+01  6.473565904E+00  4.546135604E+02  4.551753888E+02  5.394796609E-06  0.00000E+00  9.000E+00
#rwgt            1           1   4.7288649552182371E-002           5       39373           0
</event>
<event>
      5   9999  3.79277E-02  2.49595E+01 -1.00000E+00  1.58804E-01
      21    -1     0     0   502   512  0.000000000E+00  0.000000000E+00  2.842075385E+02  2.842075385E+02  0.000000000E+00  0.00000E+00  9.000E+00
      21    -1     0     0   501   502  0.000000000E+00  0.000000000E+00 -4.471453891E+02  4.471453891E+02  0.000000000E+00  0.00000E+00  9.000E+00
      25     1     1     2     0     0 -1.697960094E+02 -9.668298498E+01 -2.205338012E+02  3.200600597E+02  1.250000000E+02  0.00000E+00  9.000E+00
      25     1     1     2     0     0  1.945960570E+02  9.949953021E+01 -8.560409261E+01  2.659339064E+02  1.250000000E+02  0.00000E+00  9.000E+00
      21     1     1     2   501   512 -2.480004763E+01 -2.816545223E+00  1.432000432E+02  1.453589614E+02  0.000000000E+00  0.00000E+00  9.000E+00
#rwgt            1           1   4.0103093331375135E-002           5       39491           0
</event>
<event>
      5   9999  3.79277E-02  6.66469E+01 -1.00000E+00  1.32310E-01
      21    -1     0     0   502   501  0.000000000E+00  0.000000000E+00  2.524704533E+02  2.524704533E+02  0.000000000E+00  0.00000E+00  9.000E+00
      21    -1     0     0   501   511  0.000000000E+00  0.000000000E+00 -9.080123475E+02  9.080123475E+02  0.000000000E+00  0.00000E+00  9.000E+00
      25     1     1     2     0     0 -1.243722691E+02 -5.943576983E+01 -2.099140534E+02  2.805173468E+02  1.250000000E+02  0.00000E+00  9.000E+00
      25     1     1     2     0     0  1.882501814E+02  4.042473704E+01  1.541390184E+02  2.765070110E+02  1.250000000E+02  0.00000E+00  9.000E+00
      21     1     1     2   502   511 -6.387791233E+01  1.901103279E+01 -5.997668591E+02  6.034584429E+02  7.629394531E-06  0.00000E+00  9.000E+00
#rwgt            1           1   5.1921446498111534E-002           5       39599           0
</event>
<event>
      5   9999  3.79277E-02  1.75606E+02 -1.00000E+00  1.13744E-01
      21    -1     0     0   502   501  0.000000000E+00  0.000000000E+00  1.463815341E+02  1.463815341E+02  0.000000000E+00  0.00000E+00  9.000E+00
      21    -1     0     0   501   512  0.000000000E+00  0.000000000E+00 -6.198029249E+02  6.198029249E+02  0.000000000E+00  0.00000E+00  9.000E+00
      25     1     1     2     0     0 -9.269520819E+01  1.220565902E+01 -3.518454471E+01  1.600135367E+02  1.250000000E+02  0.00000E+00  9.000E+00
      25     1     1     2     0     0  1.089360774E+02  1.626478939E+02 -1.798354039E+02  2.937467938E+02  1.250000000E+02  0.00000E+00  9.000E+00
      21     1     1     2   502   512 -1.624086916E+01 -1.748535530E+02 -2.584014422E+02  3.124241286E+02  0.000000000E+00  0.00000E+00  9.000E+00
#rwgt            1           1   5.1313676769816428E-002           5       39665           0
</event>
<event>
      5   9999  3.79277E-02  4.60525E+02 -1.00000E+00  9.98774E-02
       1    -1     0     0   502     0  0.000000000E+00  0.000000000E+00  8.675290184E+02  8.675290184E+02  0.000000000E+00  0.00000E+00  9.000E+00
      21    -1     0     0   501   502  0.000000000E+00  0.000000000E+00 -1.332248385E+03  1.332248385E+03  0.000000000E+00  0.00000E+00  9.000E+00
      25     1     1     2     0     0 -4.153536126E+01 -7.918834833E+01 -2.278435530E+02  2.748338869E+02  1.250000000E+02  0.00000E+00  9.000E+00
      25     1     1     2     0     0  5.387577025E+01  5.395479753E+02 -9.353249062E+02  1.088334644E+03  1.250000000E+02  0.00000E+00  9.000E+00
       1     1     1     2   501     0 -1.234040899E+01 -4.603596270E+02  6.984490924E+02  8.366088731E+02  1.078959322E-05  0.00000E+00  9.000E+00
#rwgt            2          17   1.8748651664786045E-004           5       39889           0
</event>
<event>
      5   9999  3.79277E-02  8.53131E+01 -1.00000E+00  1.27012E-01
      21    -1     0     0   502   501  0.000000000E+00  0.000000000E+00  6.290908016E+02  6.290908016E+02  0.000000000E+00  0.00000E+00  9.000E+00
      21    -1     0     0   511   502  0.000000000E+00  0.000000000E+00 -8.445095494E+02  8.445095494E+02  0.000000000E+00  0.00000E+00  9.000E+00
      25     1     1     2     0     0 -7.159706368E+00  1.841208130E+02  3.803521787E+02  4.407317949E+02  1.250000000E+02  0.00000E+00  9.000E+00
      25     1     1     2     0     0  2.471342802E+01 -2.676084948E+02  1.143150941E+02  3.176759367E+02  1.250000000E+02  0.00000E+00  9.000E+00
      21     1     1     2   511   501 -1.755372165E+01  8.348768183E+01 -7.100860206E+02  7.151926194E+02  0.000000000E+00  0.00000E+00  9.000E+00
#rwgt            1           1   3.8226379862674180E-002           5       39938           0
</event>
<event>
      5   9999 -3.79277E-02  1.24543E+02 -1.00000E+00  1.19687E-01
      21    -1     0     0   502   501  0.000000000E+00  0.000000000E+00  5.858717668E+01  5.858717668E+01  0.000000000E+00  0.00000E+00  9.000E+00
      21    -1     0     0   501   512  0.000000000E+00  0.000000000E+00 -1.856075895E+03  1.856075895E+03  0.000000000E+00  0.00000E+00  9.000E+00
      25     1     1     2     0     0 -8.267126547E+01  2.804732066E+02 -7.452455192E+02  8.102565283E+02  1.250000000E+02  0.00000E+00  9.000E+00
      25     1     1     2     0     0  3.777765374E+01 -1.643027567E+02 -7.005598079E+02  7.313218111E+02  1.250000000E+02  0.00000E+00  9.000E+00
      21     1     1     2   502   512  4.489361173E+01 -1.161704499E+02 -3.516833917E+02  3.730847327E+02  3.814697266E-06  0.00000E+00  9.000E+00
#rwgt            1           1  -6.4996652738821020E-002           5       40050           0
</event>
<event>
      5   9999  3.79277E-02  7.77243E+01 -1.00000E+00  1.28959E-01
      21    -1     0     0   502   511  0.000000000E+00  0.000000000E+00  2.746723643E+02  2.746723643E+02  0.000000000E+00  0.00000E+00  9.000E+00
      21    -1     0     0   501   502  0.000000000E+00  0.000000000E+00 -1.073152924E+03  1.073152924E+03  0.000000000E+00  0.00000E+00  9.000E+00
      25     1     1     2     0     0  2.287137736E+02 -2.970071190E+02 -3.453922234E+02  5.248275973E+02  1.250000000E+02  0.00000E+00  9.000E+00
      25     1     1     2     0     0 -2.818817860E+02  3.537013579E+02 -5.339508534E+02  7.108378899E+02  1.250000000E+02  0.00000E+00  9.000E+00
      21     1     1     2   501   511  5.316801238E+01 -5.669423894E+01  8.086251726E+01  1.121598010E+02  2.132480600E-06  0.00000E+00  9.000E+00
#rwgt            1           1  0.10725110667002537                5       40134           0
</event>
<event>
      5   9999  3.79277E-02  5.23422E+01 -1.00000E+00  1.37951E-01
      21    -1     0     0   512   501  0.000000000E+00  0.000000000E+00  3.840530122E+02  3.840530122E+02  0.000000000E+00  0.00000E+00  9.000E+00
      21    -1     0     0   501   502  0.000000000E+00  0.000000000E+00 -2.736771803E+02  2.736771803E+02  0.000000000E+00  0.00000E+00  9.000E+00
      25     1     1     2     0     0 -4.718676090E+01 -6.896883672E+01  1.916182179E+02  2.435689477E+02  1.250000000E+02  0.00000E+00  9.000E+00
      25     1     1     2     0     0  9.370279300E+01  9.296817145E+01 -2.084619547E+02  2.765947955E+02  1.250000000E+02  0.00000E+00  9.000E+00
      21     1     1     2   512   502 -4.651603211E+01 -2.399933473E+01  1.272195687E+02  1.375664493E+02  1.348699152E-06  0.00000E+00  9.000E+00
#rwgt            1           1   2.5372238177665773E-002           5       40209           0
</event>
<event>
      5   9999  3.79277E-02  4.76397E+01 -1.00000E+00  1.40284E-01
      21    -1     0     0   502   501  0.000000000E+00  0.000000000E+00  1.348590258E+03  1.348590258E+03  0.000000000E+00  0.00000E+00  9.000E+00
      21    -1     0     0   511   502  0.000000000E+00  0.000000000E+00 -1.371562016E+02  1.371562016E+02  0.000000000E+00  0.00000E+00  9.000E+00
      25     1     1     2     0     0 -4.697636269E+01  2.675935112E+02  4.546839153E+02  5.442201106E+02  1.250000000E+02  0.00000E+00  9.000E+00
      25     1     1     2     0     0  4.740664088E+01 -2.199557856E+02  8.216470398E+02  8.610207868E+02  1.250000000E+02  0.00000E+00  9.000E+00
      21     1     1     2   511   501 -4.302781899E-01 -4.763772565E+01 -6.489689885E+01  8.050556208E+01  1.651812370E-06  0.00000E+00  9.000E+00
#rwgt            1           1   4.1805488548399009E-002           5       40334           0
</event>
<event>
      5   9999  3.79277E-02  2.92034E+01 -1.00000E+00  1.53856E-01
      21    -1     0     0   502   501  0.000000000E+00  0.000000000E+00  1.568021658E+03  1.568021658E+03  0.000000000E+00  0.00000E+00  9.000E+00
      21    -1     0     0   512   502  0.000000000E+00  0.000000000E+00 -5.420032381E+01  5.420032381E+01  0.000000000E+00  0.00000E+00  9.000E+00
      25     1     1     2     0     0 -1.019419839E+02 -1.335105821E+02  1.299690415E+03  1.316448791E+03  1.250000000E+02  0.00000E+00  9.000E+00
      25     1     1     2     0     0  9.501087370E+01  1.051415762E+02  1.820522244E+02  2.623925106E+02  1.250000000E+02  0.00000E+00  9.000E+00
      21     1     1     2   512   501  6.931110173E+00  2.836900592E+01  3.207869448E+01  4.338068031E+01  1.261592536E-06  0.00000E+00  9.000E+00
#rwgt            1           1   3.2470288527152717E-002           5       40493           0
</event>
<event>
      5   9999  3.79277E-02  2.08159E+01 -1.00000E+00  1.64949E-01
      21    -1     0     0   502   511  0.000000000E+00  0.000000000E+00  1.993815107E+03  1.993815107E+03  0.000000000E+00  0.00000E+00  9.000E+00
      21    -1     0     0   501   502  0.000000000E+00  0.000000000E+00 -3.612173391E+01  3.612173391E+01  0.000000000E+00  0.00000E+00  9.000E+00
      25     1     1     2     0     0  1.689556561E+02 -7.185447415E+01  4.276430230E+02  4.818844616E+02  1.250000000E+02  0.00000E+00  9.000E+00
      25     1     1     2     0     0 -1.654602005E+02  5.133418402E+01  1.349200784E+03  1.366008797E+03  1.250000000E+02  0.00000E+00  9.000E+00
      21     1     1     2   501   511 -3.495455607E+00  2.052029014E+01  1.808495659E+02  1.820435827E+02  3.303624740E-06  0.00000E+00  9.000E+00
#rwgt            1           1   3.4433263315279614E-002           5       40607           0
</event>
<event>
      5   9999  3.79277E-02  6.66287E+01 -1.00000E+00  1.32316E-01
      21    -1     0     0   502   501  0.000000000E+00  0.000000000E+00  5.971486470E+02  5.971486470E+02  0.000000000E+00  0.00000E+00  9.000E+00
      21    -1     0     0   512   502  0.000000000E+00  0.000000000E+00 -1.412312903E+02  1.412312903E+02  0.000000000E+00  0.00000E+00  9.000E+00
      25     1     1     2     0     0 -8.999422751E+01 -1.121266045E+01  1.225184563E+02  1.971305580E+02  1.250000000E+02  0.00000E+00  9.000E+00
      25     1     1     2     0     0  4.363856629E+01  5.907223355E+01  4.128454496E+02  4.375616739E+02  1.250000000E+02  0.00000E+00  9.000E+00
      21     1     1     2   512   501  4.635566122E+01 -4.785957310E+01 -7.944654920E+01  1.036877054E+02  2.697398305E-06  0.00000E+00  9.000E+00
#rwgt            1           1   3.3051957968070297E-002           5       40831           0
</event>
<event>
      5   9999  3.79277E-02  5.81276E+01 -1.00000E+00  1.35443E-01
      21    -1     0     0   502   501  0.000000000E+00  0.000000000E+00  5.798218068E+01  5.798218068E+01  0.000000000E+00  0.00000E+00  9.000E+00
       2    -1     0     0   501     0  0.000000000E+00  0.000000000E+00 -1.921603221E+03  1.921603221E+03  0.000000000E+00  0.00000E+00  9.000E+00
      25     1     1     2     0     0 -4.355576288E+01  9.763600270E+01 -8.239307779E+01  1.839660642E+02  1.250000000E+02  0.00000E+00  9.000E+00
      25     1     1     2     0     0 -1.440401469E+01 -9.322161410E+01 -1.517657869E+03  1.525715620E+03  1.250000000E+02  0.00000E+00  9.000E+00
       2     1     1     2   502     0  5.795977757E+01 -4.414388595E+00 -2.635700928E+02  2.699037170E+02  6.607249480E-06  0.00000E+00  9.000E+00
#rwgt            1           1   7.0220399450369349E-003           5       40970           0
</event>
<event>
      5   9999  3.79277E-02  2.92537E+01 -1.00000E+00  1.53804E-01
      21    -1     0     0   502   511  0.000000000E+00  0.000000000E+00  5.851452355E+02  5.851452355E+02  0.000000000E+00  0.00000E+00  9.000E+00
      21    -1     0     0   501   502  0.000000000E+00  0.000000000E+00 -7.731632419E+01  7.731632419E+01  0.000000000E+00  0.00000E+00  9.000E+00
      25     1     1     2     0     0 -1.218589763E+02 -9.776609440E+01  1.713621398E+02  2.634346262E+02  1.250000000E+02  0.00000E+00  9.000E+00
      25     1     1     2     0     0  9.263394403E+01  9.647027027E+01  2.678253291E+02  3.244117253E+02  1.250000000E+02  0.00000E+00  9.000E+00
      21     1     1     2   501   511  2.922503228E+01  1.295824131E+00  6.864144245E+01  7.461520819E+01  1.348699152E-06  0.00000E+00  9.000E+00
#rwgt            1           1   6.0802333378262380E-002           5       41217           0
</event>
<event>
      5   9999  3.79277E-02  4.62090E+01 -1.00000E+00  1.41058E-01
      21    -1     0     0   502   501  0.000000000E+00  0.000000000E+00  4.849847337E+02  4.849847337E+02  0.000000000E+00  0.00000E+00  9.000E+00
      21    -1     0     0   512   502  0.000000000E+00  0.000000000E+00 -1.128247248E+02  1.128247248E+02  0.000000000E+00  0.00000E+00  9.000E+00
      25     1     1     2     0     0  1.163949153E+02 -2.306757217E+01  5.222264326E+00  1.724301634E+02  1.250000000E+02  0.00000E+00  9.000E+00
      25     1     1     2     0     0 -7.032900338E+01  1.943406340E+01  3.451948442E+02  3.743104754E+02  1.250000000E+02  0.00000E+00  9.000E+00
      21     1     1     2   512   501 -4.606591195E+01  3.633508773E+00  2.174290028E+01  5.106881967E+01  4.129530925E-07  0.00000E+00  9.000E+00
#rwgt            1           1   4.2081746606488828E-002           5       41390           0
</event>
<event>
      5   9999  3.79277E-02  3.67281E+01 -1.00000E+00  1.47177E-01
      21    -1     0     0   502   511  0.000000000E+00  0.000000000E+00  2.359483089E+03  2.359483089E+03  0.000000000E+00  0.00000E+00  9.000E+00
      21    -1     0     0   501   502  0.000000000E+00  0.000000000E+00 -3.034740763E+01  3.034740763E+01  0.000000000E+00  0.00000E+00  9.000E+00
      25     1     1     2     0     0  2.121606662E+02  4.496043636E+01  1.126467675E+03  1.153944545E+03  1.250000000E+02  0.00000E+00  9.000E+00
      25     1     1     2     0     0 -2.127646887E+02 -8.237273666E+00  1.009335380E+03  1.039095556E+03  1.250000000E+02  0.00000E+00  9.000E+00
      21     1     1     2   501   511  6.040225502E-01 -3.672316269E+01  1.933326265E+02  1.967903961E+02  2.697398305E-06  0.00000E+00  9.000E+00
#rwgt            1           1  0.11352547602114638                5       41515           0
</event>
<event>
      5   9999  3.79277E-02  8.61568E+01 -1.00000E+00  1.26810E-01
      21    -1     0     0   502   501  0.000000000E+00  0.000000000E+00  4.182984974E+02  4.182984974E+02  0.000000000E+00  0.00000E+00  9.000E+00
      21    -1     0     0   501   512  0.000000000E+00  0.000000000E+00 -3.653456363E+02  3.653456363E+02  0.000000000E+00  0.00000E+00  9.000E+00
      25     1     1     2     0     0  3.348015253E+02  4.644105211E+01 -3.301042396E+01  3.618888237E+02  1.250000000E+02  0.00000E+00  9.000E+00
      25     1     1     2     0     0 -2.691332187E+02 -1.022144656E+02  1.095546032E+02  3.324269806E+02  1.250000000E+02  0.00000E+00  9.000E+00
      21     1     1     2   502   512 -6.566830660E+01  5.577341349E+01 -2.359131805E+01  8.932832939E+01  1.118282261E-06  0.00000E+00  9.000E+00
#rwgt            1           1   3.7545783598307209E-002           5       41773           0
</event>
<event>
      5   9999  3.79277E-02  1.54857E+01 -1.00000E+00  1.76090E-01
      21    -1     0     0   511   501  0.000000000E+00  0.000000000E+00  1.222683594E+02  1.222683594E+02  0.000000000E+00  0.00000E+00  9.000E+00
      21    -1     0     0   501   502  0.000000000E+00  0.000000000E+00 -8.601811072E+02  8.601811072E+02  0.000000000E+00  0.00000E+00  9.000E+00
      25     1     1     2     0     0 -1.231251968E+02  1.216593855E+02 -3.014278601E+02  3.693840482E+02  1.250000000E+02  0.00000E+00  9.000E+00
      25     1     1     2     0     0  1.262017677E+02 -1.064823869E+02 -5.034239919E+02  5.443584302E+02  1.250000000E+02  0.00000E+00  9.000E+00
      21     1     1     2   511   502 -3.076570838E+00 -1.517699858E+01  6.693910416E+01  6.870698829E+01  2.336015456E-06  0.00000E+00  9.000E+00
#rwgt            1           1   9.3013023379950641E-002           5       41861           0
</event>
<event>
      5   9999  3.79277E-02  4.52948E+01 -1.00000E+00  1.41570E-01
      21    -1     0     0   502   512  0.000000000E+00  0.000000000E+00  4.055748606E+02  4.055748606E+02  0.000000000E+00  0.00000E+00  9.000E+00
      21    -1     0     0   501   502  0.000000000E+00  0.000000000E+00 -2.962334213E+02  2.962334213E+02  0.000000000E+00  0.00000E+00  9.000E+00
      25     1     1     2     0     0  2.198598509E+02 -7.343752721E+01  2.228702947E+02  3.450037575E+02  1.250000000E+02  0.00000E+00  9.000E+00
      25     1     1     2     0     0 -1.758679427E+02  6.265170892E+01 -1.719186755E+02  2.829059930E+02  1.250000000E+02  0.00000E+00  9.000E+00
      21     1     1     2   501   512 -4.399190821E+01  1.078581829E+01  5.838982004E+01  7.389853143E+01  1.507891493E-06  0.00000E+00  9.000E+00
#rwgt            1           1   4.6384469235921717E-002           5       42043           0
</event>
<event>
      5   9999  3.79277E-02  6.60043E+01 -1.00000E+00  1.32527E-01
      21    -1     0     0   502   501  0.000000000E+00  0.000000000E+00  4.026622740E+01  4.026622740E+01  0.000000000E+00  0.00000E+00  9.000E+00
      21    -1     0     0   501   511  0.000000000E+00  0.000000000E+00 -1.275718794E+03  1.275718794E+03  0.000000000E+00  0.00000E+00  9.000E+00
      25     1     1     2     0     0 -7.182826773E+00 -1.174449078E+01 -7.641796602E+02  7.744579260E+02  1.250000000E+02  0.00000E+00  9.000E+00
      25     1     1     2     0     0 -3.478988584E+01  6.268427221E+01 -1.304622037E+02  1.943837461E+02  1.250000000E+02  0.00000E+00  9.000E+00
      21     1     1     2   502   511  4.197271262E+01 -5.093978143E+01 -3.408107029E+02  3.471433496E+02  6.607249480E-06  0.00000E+00  9.000E+00
#rwgt            1           1   5.0230250934524510E-002           5       42266           0
</event>
<event>
      5   9999  3.79277E-02  6.29055E+01 -1.00000E+00  1.33615E-01
      21    -1     0     0   502   501  0.000000000E+00  0.000000000E+00  2.133808006E+01  2.133808006E+01  0.000000000E+00  0.00000E+00  9.000E+00
      21    -1     0     0   501   512  0.000000000E+00  0.000000000E+00 -2.215872134E+03  2.215872134E+03  0.000000000E+00  0.00000E+00  9.000E+00
      25     1     1     2     0     0 -7.620198182E+01 -4.622651391E+01 -3.720937734E+02  4.025200726E+02  1.250000000E+02  0.00000E+00  9.000E+00
      25     1     1     2     0     0  7.463821331E+01 -1.665950175E+01 -1.389098339E+03  1.396806213E+03  1.250000000E+02  0.00000E+00  9.000E+00
      21     1     1     2   502   512  1.563768507E+00  6.288601567E+01 -4.333419423E+02  4.378839290E+02  0.000000000E+00  0.00000E+00  9.000E+00
#rwgt            1           1  0.17166409079715550                5       42335           0
</event>
<event>
      5   9999 -3.79277E-02  2.57027E+02 -1.00000E+00  1.07821E-01
      21    -1     0     0   502   511  0.000000000E+00  0.000000000E+00  3.982552185E+02  3.982552185E+02  0.000000000E+00  0.00000E+00  9.000E+00
      21    -1     0     0   501   502  0.000000000E+00  0.000000000E+00 -4.123199362E+02  4.123199362E+02  0.000000000E+00  0.00000E+00  9.000E+00
      25     1     1     2     0     0 -2.137600098E+01 -1.056941685E+02  9.719049028E+01  1.915703058E+02  1.250000000E+02  0.00000E+00  9.000E+00
      25     1     1     2     0     0  1.385060890E+02 -1.230923833E+02 -2.430121585E+02  3.301750758E+02  1.250000000E+02  0.00000E+00  9.000E+00
      21     1     1     2   501   511 -1.171300880E+02  2.287865518E+02  1.317569505E+02  2.888297731E+02  8.740569487E-06  0.00000E+00  9.000E+00
#rwgt            1           1  -1.4731064983346160E-002           5       42398           0
</event>
<event>
      5   9999  3.79277E-02  3.72803E+01 -1.00000E+00  1.46763E-01
      21    -1     0     0   502   501  0.000000000E+00  0.000000000E+00  1.823310589E+02  1.823310589E+02  0.000000000E+00  0.00000E+00  9.000E+00
      21    -1     0     0   501   512  0.000000000E+00  0.000000000E+00 -4.325502434E+02  4.325502434E+02  0.000000000E+00  0.00000E+00  9.000E+00
      25     1     1     2     0     0 -1.838938291E+02 -1.508828364E+01 -1.340554744E+02  2.600778093E+02  1.250000000E+02  0.00000E+00  9.000E+00
      25     1     1     2     0     0  1.555510673E+02 -9.129580587E+00  3.174604663E+01  2.022678800E+02  1.250000000E+02  0.00000E+00  9.000E+00
      21     1     1     2   502   512  2.834276179E+01  2.421786423E+01 -1.479097567E+02  1.525356129E+02  1.907348633E-06  0.00000E+00  9.000E+00
#rwgt            1           1   3.2225687215577496E-002           5       42494           0
</event>
<event>
      5   9999  3.79277E-02  1.05091E+01 -1.00000E+00  1.93297E-01
      21    -1     0     0   511   501  0.000000000E+00  0.000000000E+00  7.786274940E+02  7.786274940E+02  0.000000000E+00  0.00000E+00  9.000E+00
      21    -1     0     0   501   502  0.000000000E+00  0.000000000E+00 -4.342774862E+01  4.342774862E+01  0.000000000E+00  0.00000E+00  9.000E+00
      25     1     1     2     0     0 -6.599782890E+01 -2.214495022E+01  1.157960770E+02  1.840647812E+02  1.250000000E+02  0.00000E+00  9.000E+00
      25     1     1     2     0     0  5.835384872E+01  2.935673131E+01  5.500031523E+02  5.677987820E+02  1.250000000E+02  0.00000E+00  9.000E+00
      21     1     1     2   511   502  7.643980181E+00 -7.211781099E+00  6.940051613E+01  7.019167941E+01  0.000000000E+00  0.00000E+00  9.000E+00
#rwgt            1           1   4.6281758170056815E-002           5       42701           0
</event>
<event>
      5   9999  3.79277E-02  1.06723E+01 -1.00000E+00  1.92546E-01
      21    -1     0     0   502   501  0.000000000E+00  0.000000000E+00  4.552236051E+02  4.552236051E+02  0.000000000E+00  0.00000E+00  9.000E+00
      21    -1     0     0   512   502  0.000000000E+00  0.000000000E+00 -1.086723405E+02  1.086723405E+02  0.000000000E+00  0.00000E+00  9.000E+00
      25     1     1     2     0     0 -1.522154383E+01  1.105294033E+02  3.356271077E+02  3.751253122E+02  1.250000000E+02  0.00000E+00  9.000E+00
      25     1     1     2     0     0  2.560092202E+01 -1.130126692E+02  2.374044065E+01  1.720926470E+02  1.250000000E+02  0.00000E+00  9.000E+00
      21     1     1     2   512   501 -1.037937818E+01  2.483265946E+00 -1.281628382E+01  1.667798645E+01  1.685873940E-07  0.00000E+00  9.000E+00
#rwgt            1           1   3.7475242735622465E-002           5       42916           0
</event>
<event>
      5   9999  3.79277E-02  1.99468E+01 -1.00000E+00  1.66465E-01
      21    -1     0     0   511   501  0.000000000E+00  0.000000000E+00  8.526188592E+02  8.526188592E+02  0.000000000E+00  0.00000E+00  9.000E+00
      21    -1     0     0   501   502  0.000000000E+00  0.000000000E+00 -8.640968766E+01  8.640968766E+01  0.000000000E+00  0.00000E+00  9.000E+00
      25     1     1     2     0     0 -1.992180539E+01  1.940401030E+02  4.072957551E+02  4.685757912E+02  1.250000000E+02  0.00000E+00  9.000E+00
      25     1     1     2     0     0  3.678562077E+01 -1.833870718E+02  1.738334466E+02  2.843010150E+02  1.250000000E+02  0.00000E+00  9.000E+00
      21     1     1     2   511   502 -1.686381537E+01 -1.065303122E+01  1.850799698E+02  1.861517407E+02  3.814697266E-06  0.00000E+00  9.000E+00
#rwgt            1           1   4.6029952367868283E-002           5       43262           0
</event>
<event>
      5   9999  3.79277E-02  9.88209E+01 -1.00000E+00  1.24060E-01
      21    -1     0     0   502   501  0.000000000E+00  0.000000000E+00  3.185031072E+02  3.185031072E+02  0.000000000E+00  0.00000E+00  9.000E+00
      21    -1     0     0   512   502  0.000000000E+00  0.000000000E+00 -2.772936347E+02  2.772936347E+02  0.000000000E+00  0.00000E+00  9.000E+00
      25     1     1     2     0     0  7.167390046E+01  1.123917249E+02  1.145593448E+02  2.156800670E+02  1.250000000E+02  0.00000E+00  9.000E+00
      25     1     1     2     0     0 -1.680341830E+02 -1.343065459E+02  1.264810030E+01  2.491158553E+02  1.250000000E+02  0.00000E+00  9.000E+00
      21     1     1     2   512   501  9.636028257E+01  2.191482100E+01 -8.599797259E+01  1.310008196E+02  9.536743164E-07  0.00000E+00  9.000E+00
#rwgt            1           1   4.0555647273799185E-002           5       43537           0
</event>
<event>
      5   9999  3.79277E-02  5.71098E+01 -1.00000E+00  1.35859E-01
      21    -1     0     0   502   501  0.000000000E+00  0.000000000E+00  7.808777262E+01  7.808777262E+01  0.000000000E+00  0.00000E+00  9.000E+00
      21    -1     0     0   501   511  0.000000000E+00  0.000000000E+00 -7.258303635E+02  7.258303635E+02  0.000000000E+00  0.00000E+00  9.000E+00
      25     1     1     2     0     0 -1.944865032E+01  6.787713720E+01 -4.794059686E+02  5.004404445E+02  1.250000000E+02  0.00000E+00  9.000E+00
      25     1     1     2     0     0  3.949395884E+01 -1.213534176E+02 -7.433327624E+01  1.934860737E+02  1.250000000E+02  0.00000E+00  9.000E+00
      21     1     1     2   502   511 -2.004530852E+01  5.347628039E+01 -9.400334606E+01  1.099916180E+02  2.697398305E-06  0.00000E+00  9.000E+00
#rwgt            1           1   2.9300315146877542E-002           5       43608           0
</event>
<event>
      5   9999  3.79277E-02  2.02536E+01 -1.00000E+00  1.65919E-01
      21    -1     0     0   502   501  0.000000000E+00  0.000000000E+00  1.432766795E+02  1.432766795E+02  0.000000000E+00  0.00000E+00  9.000E+00
      21    -1     0     0   501   512  0.000000000E+00  0.000000000E+00 -1.012897706E+03  1.012897706E+03  0.000000000E+00  0.00000E+00  9.000E+00
      25     1     1     2     0     0  6.114361980E+01 -6.331484618E+01  9.021064860E+01  1.775113323E+02  1.250000000E+02  0.00000E+00  9.000E+00
      25     1     1     2     0     0 -5.923872080E+01  4.315105137E+01 -5.640899952E+02  5.824034358E+02  1.250000000E+02  0.00000E+00  9.000E+00
      21     1     1     2   502   512 -1.904899003E+00  2.016379481E+01 -3.957416799E+02  3.962596176E+02  7.629394531E-06  0.00000E+00  9.000E+00
#rwgt            1           1   4.2778389707404295E-002           5       43751           0
</event>
<event>
      5   9999  3.79277E-02  7.80792E+00 -1.00000E+00  2.09060E-01
      21    -1     0     0   502   511  0.000000000E+00  0.000000000E+00  1.885789851E+02  1.885789851E+02  0.000000000E+00  0.00000E+00  9.000E+00
      21    -1     0     0   501   502  0.000000000E+00  0.000000000E+00 -4.435912832E+02  4.435912832E+02  0.000000000E+00  0.00000E+00  9.000E+00
      25     1     1     2     0     0 -2.344024919E+01 -1.441562741E+02 -3.540436394E+02  4.028676895E+02  1.250000000E+02  0.00000E+00  9.000E+00
      25     1     1     2     0     0  2.867076982E+01  1.499532798E+02  1.003783150E+02  2.213793244E+02  1.250000000E+02  0.00000E+00  9.000E+00
      21     1     1     2   501   511 -5.230520637E+00 -5.797005674E+00 -1.346973720E+00  7.923254326E+00  9.185692672E-08  0.00000E+00  9.000E+00
#rwgt            1           1   4.0394629066041514E-002           5       43995           0
</event>
<event>
      5   9999  3.79277E-02  8.16626E+01 -1.00000E+00  1.27919E-01
       2    -1     0     0   502     0  0.000000000E+00  0.000000000E+00  4.814986939E+02  4.814986939E+02  0.000000000E+00  0.00000E+00  9.000E+00
      21    -1     0     0   501   502  0.000000000E+00  0.000000000E+00 -5.546483772E+02  5.546483772E+02  0.000000000E+00  0.00000E+00  9.000E+00
      25     1     1     2     0     0  1.396683013E+02  1.550085156E+02 -3.536736796E+02  4.292376334E+02  1.250000000E+02  0.00000E+00  9.000E+00
      25     1     1     2     0     0 -1.071376460E+02 -8.010504332E+01 -1.062001519E+02  2.116571885E+02  1.250000000E+02  0.00000E+00  9.000E+00
       2     1     1     2   501     0 -3.253065523E+01 -7.490347229E+01  3.867241482E+02  3.952522492E+02  5.394796609E-06  0.00000E+00  9.000E+00
#rwgt            1           1   4.1846553488936095E-002           5       44277           0
</event>
<event>
      5   9999  3.79277E-02  1.42302E+01 -1.00000E+00  1.79567E-01
      21    -1     0     0   502   501  0.000000000E+00  0.000000000E+00  1.510876220E+03  1.510876220E+03  0.000000000E+00  0.00000E+00  9.000E+00
      21    -1     0     0   501   511  0.000000000E+00  0.000000000E+00 -8.606793922E+01  8.606793922E+01  0.000000000E+00  0.00000E+00  9.000E+00
      25     1     1     2     0     0  1.571741346E+02  1.450797539E+01  7.376845205E+01  2.144317478E+02  1.250000000E+02  0.00000E+00  9.000E+00
      25     1     1     2     0     0 -1.585520850E+02 -3.446357040E-01  1.353147287E+03  1.368126991E+03  1.250000000E+02  0.00000E+00  9.000E+00
      21     1     1     2   502   511  1.377950427E+00 -1.416333969E+01 -2.107458615E+00  1.438542041E+01  4.246177330E-07  0.00000E+00  9.000E+00
#rwgt            1           1   2.7395315508728955E-002           5       44410           0
</event>
<event>
      5   9999  3.79277E-02  1.03996E+02 -1.00000E+00  1.23067E-01
      21    -1     0     0   502   512  0.000000000E+00  0.000000000E+00  5.867332033E+01  5.867332033E+01  0.000000000E+00  0.00000E+00  9.000E+00
      21    -1     0     0   501   502  0.000000000E+00  0.000000000E+00 -1.918498692E+03  1.918498692E+03  0.000000000E+00  0.00000E+00  9.000E+00
      25     1     1     2     0     0 -1.686150093E+02 -1.848856428E+02 -5.174773424E+02  5.882359409E+02  1.250000000E+02  0.00000E+00  9.000E+00
      25     1     1     2     0     0  1.759670547E+02  8.114971171E+01 -1.119689516E+03  1.143188214E+03  1.250000000E+02  0.00000E+00  9.000E+00
      21     1     1     2   501   512 -7.352045350E+00  1.037359311E+02 -2.226585131E+02  2.457478574E+02  2.697398305E-06  0.00000E+00  9.000E+00
#rwgt            1           1   4.3332236891094174E-002           5       44663           0
</event>
<event>
      5   9999  3.79277E-02  3.21776E+01 -1.00000E+00  1.50956E-01
      21    -1     0     0   502   511  0.000000000E+00  0.000000000E+00  4.627153835E+02  4.627153835E+02  0.000000000E+00  0.00000E+00  9.000E+00
      21    -1     0     0   501   502  0.000000000E+00  0.000000000E+00 -2.029106773E+02  2.029106773E+02  0.000000000E+00  0.00000E+00  9.000E+00
      25     1     1     2     0     0  2.064869863E+02 -1.697817383E+01  1.431206023E+02  2.811292242E+02  1.250000000E+02  0.00000E+00  9.000E+00
      25     1     1     2     0     0 -2.100987472E+02  4.895245753E+01 -1.418693180E+01  2.497280435E+02  1.250000000E+02  0.00000E+00  9.000E+00
      21     1     1     2   501   511  3.611760864E+00 -3.197428370E+01  1.308710356E+02  1.347687931E+02  1.907348633E-06  0.00000E+00  9.000E+00
#rwgt            1           1   4.6986886447149011E-002           5       44775           0
</event>
<event>
      5   9999  3.79277E-02  2.06099E+01 -1.00000E+00  1.65300E-01
      21    -1     0     0   512   501  0.000000000E+00  0.000000000E+00  1.265685478E+02  1.265685478E+02  0.000000000E+00  0.00000E+00  9.000E+00
      21    -1     0     0   501   502  0.000000000E+00  0.000000000E+00 -4.690068705E+02  4.690068705E+02  0.000000000E+00  0.00000E+00  9.000E+00
      25     1     1     2     0     0  3.556345560E+01 -7.444520602E+01 -3.917545041E+01  1.548113820E+02  1.250000000E+02  0.00000E+00  9.000E+00
      25     1     1     2     0     0 -2.115486477E+01  5.970877128E+01 -3.568344514E+02  3.833646976E+02  1.250000000E+02  0.00000E+00  9.000E+00
      21     1     1     2   512   502 -1.440859082E+01  1.473643474E+01  5.357157912E+01  5.739933874E+01  1.348699152E-06  0.00000E+00  9.000E+00
#rwgt            1           1   5.0213690626536946E-002           5       44944           0
</event>
<event>
      5   9999  3.79277E-02  6.58277E+01 -1.00000E+00  1.32587E-01
      21    -1     0     0   502   511  0.000000000E+00  0.000000000E+00  5.932556707E+02  5.932556707E+02  0.000000000E+00  0.00000E+00  9.000E+00
      21    -1     0     0   501   502  0.000000000E+00  0.000000000E+00 -7.176354433E+01  7.176354433E+01  0.000000000E+00  0.00000E+00  9.000E+00
      25     1     1     2     0     0 -1.166916471E+02  5.627972685E+01  2.515799926E+02  3.093571413E+02  1.250000000E+02  0.00000E+00  9.000E+00
      25     1     1     2     0     0  5.921452698E+01 -2.419133102E+01  9.705116797E+01  1.706912707E+02  1.250000000E+02  0.00000E+00  9.000E+00
      21     1     1     2   501   511  5.747712013E+01 -3.208839583E+01  1.728609658E+02  1.849708030E+02  1.907348633E-06  0.00000E+00  9.000E+00
#rwgt            1           1   3.0607664967876636E-002           5       45102           0
</event>
<event>
      5   9999  3.79277E-02  5.58787E+01 -1.00000E+00  1.36376E-01
      21    -1     0     0   502   501  0.000000000E+00  0.000000000E+00  1.590271184E+02  1.590271184E+02  0.000000000E+00  0.00000E+00  9.000E+00
      21    -1     0     0   501   512  0.000000000E+00  0.000000000E+00 -1.116770544E+03  1.116770544E+03  0.000000000E+00  0.00000E+00  9.000E+00
      25     1     1     2     0     0  1.414532119E+02  1.063563253E+02 -6.048555008E+02  6.424919112E+02  1.250000000E+02  0.00000E+00  9.000E+00
      25     1     1     2     0     0 -8.674105196E+01 -1.177146342E+02  7.152104272E+01  2.052340244E+02  1.250000000E+02  0.00000E+00  9.000E+00
      21     1     1     2   502   512 -5.471215997E+01  1.135830894E+01 -4.244089673E+02  4.280717266E+02  7.629394531E-06  0.00000E+00  9.000E+00
#rwgt            1           1   3.4198639057082980E-002           5       45200           0
</event>
<event>
      5   9999  3.79277E-02  2.23377E+02 -1.00000E+00  1.09928E-01
      21    -1     0     0   502   501  0.000000000E+00  0.000000000E+00  1.083073327E+03  1.083073327E+03  0.000000000E+00  0.00000E+00  9.000E+00
      21    -1     0     0   511   502  0.000000000E+00  0.000000000E+00 -1.790107438E+02  1.790107438E+02  0.000000000E+00  0.00000E+00  9.000E+00
      25     1     1     2     0     0 -2.059445233E+02  4.773748981E+01  7.612965831E+01  2.571239768E+02  1.250000000E+02  0.00000E+00  9.000E+00
      25     1     1     2     0     0  8.987465711E+01 -2.385912967E+02  6.803632369E+02  7.372397133E+02  1.250000000E+02  0.00000E+00  9.000E+00
      21     1     1     2   511   501  1.160698661E+02  1.908538069E+02  1.475696883E+02  2.677203809E+02  3.814697266E-06  0.00000E+00  9.000E+00
#rwgt            2          11   2.1491080548925595E-003           5       45413           0
</event>
<event>
      5   9999  3.79277E-02  3.34416E+01 -1.00000E+00  1.49834E-01
      21    -1     0     0   512   501  0.000000000E+00  0.000000000E+00  1.561846272E+02  1.561846272E+02  0.000000000E+00  0.00000E+00  9.000E+00
      21    -1     0     0   501   502  0.000000000E+00  0.000000000E+00 -3.516238171E+02  3.516238171E+02  0.000000000E+00  0.00000E+00  9.000E+00
      25     1     1     2     0     0 -9.413581802E+01  7.664044585E+01  3.243520838E+01  1.772353038E+02  1.250000000E+02  0.00000E+00  9.000E+00
      25     1     1     2     0     0  9.797472377E+01 -4.341988786E+01 -2.432755110E+02  2.937555232E+02  1.250000000E+02  0.00000E+00  9.000E+00
      21     1     1     2   512   502 -3.838905753E+00 -3.322055799E+01  1.540111271E+01  3.681761730E+01  1.227334755E-06  0.00000E+00  9.000E+00
#rwgt            1           1  0.21116106164973356                5       45493           0
</event>
<event>
      5   9999  3.79277E-02  1.82209E+01 -1.00000E+00  1.69778E-01
      21    -1     0     0   502   511  0.000000000E+00  0.000000000E+00  1.374258604E+03  1.374258604E+03  0.000000000E+00  0.00000E+00  9.000E+00
      21    -1     0     0   501   502  0.000000000E+00  0.000000000E+00 -5.578332527E+01  5.578332527E+01  0.000000000E+00  0.00000E+00  9.000E+00
      25     1     1     2     0     0 -7.519517090E+01 -1.787110719E+02  2.683767668E+02  3.538969481E+02  1.250000000E+02  0.00000E+00  9.000E+00
      25     1     1     2     0     0  6.459066358E+01  1.638940425E+02  9.924872163E+02  1.015720968E+03  1.250000000E+02  0.00000E+00  9.000E+00
      21     1     1     2   501   511  1.060450732E+01  1.481702943E+01  5.761129541E+01  6.042401257E+01  6.743495762E-07  0.00000E+00  9.000E+00
#rwgt            1           1   3.8991475879707443E-002           5       45645           0
</event>
<event>
      5   9999  3.79277E-02  7.56030E+01 -1.00000E+00  1.29549E-01
      21    -1     0     0   502   501  0.000000000E+00  0.000000000E+00  1.289618814E+02  1.289618814E+02  0.000000000E+00  0.00000E+00  9.000E+00
      21    -1     0     0   512   502  0.000000000E+00  0.000000000E+00 -3.236339472E+02  3.236339472E+02  0.000000000E+00  0.00000E+00  9.000E+00
      25     1     1     2     0     0  8.910483484E+01 -7.429667716E+00 -3.952210041E+01  1.586879579E+02  1.250000000E+02  0.00000E+00  9.000E+00
      25     1     1     2     0     0 -9.910550314E+01 -6.750897882E+01 -1.186312352E+02  2.099469765E+02  1.250000000E+02  0.00000E+00  9.000E+00
      21     1     1     2   512   501  1.000066831E+01  7.493864654E+01 -3.651873024E+01  8.396089429E+01  0.000000000E+00  0.00000E+00  9.000E+00
#rwgt            1           1   3.7714152081138874E-002           5       45912           0
</event>
<event>
      5   9999  3.79277E-02  1.03698E+02 -1.00000E+00  1.23123E-01
      21    -1     0     0   502   501  0.000000000E+00  0.000000000E+00  2.501633116E+01  2.501633116E+01  0.000000000E+00  0.00000E+00  9.000E+00
       2    -1     0     0   501     0  0.000000000E+00  0.000000000E+00 -3.068747980E+03  3.068747980E+03  0.000000000E+00  0.00000E+00  9.000E+00
      25     1     1     2     0     0 -7.560388733E+01 -1.473621912E+02 -1.531286519E+03  1.545281517E+03  1.250000000E+02  0.00000E+00  9.000E+00
      25     1     1     2     0     0  1.369349319E+02  6.374539811E+01 -6.257844160E+02  6.557787635E+02  1.250000000E+02  0.00000E+00  9.000E+00
       2     1     1     2   502     0 -6.133104453E+01  8.361679306E+01 -8.866607137E+02  8.927040306E+02  1.078959322E-05  0.00000E+00  9.000E+00
#rwgt            1           1   5.4773101807902992E-002           5       46018           0
</event>
<event>
      5   9999  3.79277E-02  7.57337E+01 -1.00000E+00  1.29512E-01
      21    -1     0     0   502   511  0.000000000E+00  0.000000000E+00  8.937435351E+02  8.937435351E+02  0.000000000E+00  0.00000E+00  9.000E+00
      21    -1     0     0   501   502  0.000000000E+00  0.000000000E+00 -8.434287342E+01  8.434287342E+01  0.000000000E+00  0.00000E+00  9.000E+00
      25     1     1     2     0     0  1.145029085E+02 -5.425138030E+01  5.411630280E+02  5.696810961E+02  1.250000000E+02  0.00000E+00  9.000E+00
      25     1     1     2     0     0 -1.495326294E+02 -1.289406556E+01  9.063125054E+01  2.153260034E+02  1.250000000E+02  0.00000E+00  9.000E+00
      21     1     1     2   501   511  3.502972093E+01  6.714544586E+01  1.776063831E+02  1.930793090E+02  4.264961200E-06  0.00000E+00  9.000E+00
#rwgt            1           1   4.0870132001118276E-002           5       46101           0
</event>
<event>
      5   9999  3.79277E-02  1.58004E+01 -1.00000E+00  1.75283E-01
      21    -1     0     0   502   501  0.000000000E+00  0.000000000E+00  1.687553173E+02  1.687553173E+02  0.000000000E+00  0.00000E+00  9.000E+00
      21    -1     0     0   512   502  0.000000000E+00  0.000000000E+00 -2.834138083E+02  2.834138083E+02  0.000000000E+00  0.00000E+00  9.000E+00
      25     1     1     2     0     0  5.789872764E+01 -1.271507887E+02 -1.346782874E+02  2.308307319E+02  1.250000000E+02  0.00000E+00  9.000E+00
      25     1     1     2     0     0 -6.377976671E+01  1.418158877E+02  3.126382273E+01  2.019456146E+02  1.250000000E+02  0.00000E+00  9.000E+00
      21     1     1     2   512   501  5.881039070E+00 -1.466509903E+01 -1.124402641E+01  1.939277906E+01  3.153981341E-07  0.00000E+00  9.000E+00
#rwgt            1           1   3.7626677433446096E-002           5       46181           0
</event>
<event>
      5   9999  3.79277E-02  3.25336E+01 -1.00000E+00  1.50634E-01
       2    -1     0     0   502     0  0.000000000E+00  0.000000000E+00  1.030291350E+03  1.030291350E+03  0.000000000E+00  0.00000E+00  9.000E+00
      21    -1     0     0   501   502  0.000000000E+00  0.000000000E+00 -4.993455877E+02  4.993455877E+02  0.000000000E+00  0.00000E+00  9.000E+00
      25     1     1     2     0     0 -1.813967724E+02  1.628462154E+02 -8.828688592E+00  2.740923652E+02  1.250000000E+02  0.00000E+00  9.000E+00
      25     1     1     2     0     0  1.655428179E+02 -1.912555359E+02 -3.019118175E+02  4.132297788E+02  1.250000000E+02  0.00000E+00  9.000E+00
       2     1     1     2   501     0  1.585395452E+01  2.840932053E+01  8.416862686E+02  8.423147940E+02  1.078959322E-05  0.00000E+00  9.000E+00
#rwgt            1           1   3.4639673004811529E-002           5       46403           0
</event>
<event>
      5   9999  3.79277E-02  4.30625E+01 -1.00000E+00  1.42881E-01
      21    -1     0     0   502   501  0.000000000E+00  0.000000000E+00  1.293353654E+02  1.293353654E+02  0.000000000E+00  0.00000E+00  9.000E+00
       2    -1     0     0   501     0  0.000000000E+00  0.000000000E+00 -5.326967849E+02  5.326967849E+02  0.000000000E+00  0.00000E+00  9.000E+00
      25     1     1     2     0     0 -2.137898079E+01 -1.064827731E+02 -1.330918992E+01  1.661257847E+02  1.250000000E+02  0.00000E+00  9.000E+00
      25     1     1     2     0     0 -1.753741037E+01  8.804661180E+01 -6.342991815E+01  1.664575655E+02  1.250000000E+02  0.00000E+00  9.000E+00
       2     1     1     2   502     0  3.891639116E+01  1.843616135E+01 -3.266223115E+02  3.294488001E+02  5.394796609E-06  0.00000E+00  9.000E+00
#rwgt            1           1   3.8616692027274184E-002           5       46595           0
</event>
<event>
      5   9999  3.79277E-02  1.43107E+01 -1.00000E+00  1.79330E-01
      -1    -1     0     0     0   501  0.000000000E+00  0.000000000E+00  5.116403445E+02  5.116403445E+02  0.000000000E+00  0.00000E+00  9.000E+00
      21    -1     0     0   501   502  0.000000000E+00  0.000000000E+00 -6.388671493E+01  6.388671493E+01  0.000000000E+00  0.00000E+00  9.000E+00
      25     1     1     2     0     0  7.254499609E+01 -1.599211654E+01  7.487965217E+01  1.635557598E+02  1.250000000E+02  0.00000E+00  9.000E+00
      25     1     1     2     0     0 -8.342938726E+01  6.700933837E+00  2.786259846E+02  3.166430238E+02  1.250000000E+02  0.00000E+00  9.000E+00
      -1     1     1     2     0   502  1.088439116E+01  9.291182706E+00  9.424799276E+01  9.532827590E+01  1.348699152E-06  0.00000E+00  9.000E+00
#rwgt            1           1  0.11119249783167152                5       46920           0
</event>
<event>
      5   9999  3.79277E-02  7.68173E+01 -1.00000E+00  1.29209E-01
      21    -1     0     0   502   501  0.000000000E+00  0.000000000E+00  3.978908160E+02  3.978908160E+02  0.000000000E+00  0.00000E+00  9.000E+00
      21    -1     0     0   501   511  0.000000000E+00  0.000000000E+00 -4.291489698E+02  4.291489698E+02  0.000000000E+00  0.00000E+00  9.000E+00
      25     1     1     2     0     0 -2.751913032E+02 -2.199486278E+01  2.343063527E+02  3.830646084E+02  1.250000000E+02  0.00000E+00  9.000E+00
      25     1     1     2     0     0  2.439099057E+02 -4.816470267E+01 -2.193064652E+02  3.543052446E+02  1.250000000E+02  0.00000E+00  9.000E+00
      21     1     1     2   502   511  3.128139753E+01  7.015956546E+01 -4.625804133E+01  8.966993277E+01  6.743495762E-07  0.00000E+00  9.000E+00
#rwgt            1           1   5.6030170219321211E-002           5       47129           0
</event>
<event>
      5   9999  3.79277E-02  1.22112E+02 -1.00000E+00  1.20048E-01
      21    -1     0     0   502   512  0.000000000E+00  0.000000000E+00  1.195135181E+03  1.195135181E+03  0.000000000E+00  0.00000E+00  9.000E+00
      21    -1     0     0   501   502  0.000000000E+00  0.000000000E+00 -5.884054851E+01  5.884054851E+01  0.000000000E+00  0.00000E+00  9.000E+00
      25     1     1     2     0     0 -5.614590740E+01 -3.511622396E+01  1.233914254E+02  1.877124289E+02  1.250000000E+02  0.00000E+00  9.000E+00
      25     1     1     2     0     0  1.696486987E+02 -9.922992231E+00  6.457133980E+02  6.793010666E+02  1.250000000E+02  0.00000E+00  9.000E+00
      21     1     1     2   501   512 -1.135027913E+02  4.503921619E+01  3.671898090E+02  3.869622339E+02  0.000000000E+00  0.00000E+00  9.000E+00
#rwgt            1           1   3.8717808016555839E-002           5       47310           0
</event>
<event>
      5   9999  3.79277E-02  7.91334E+01 -1.00000E+00  1.28579E-01
      21    -1     0     0   502   511  0.000000000E+00  0.000000000E+00  6.655631361E+02  6.655631361E+02  0.000000000E+00  0.00000E+00  9.000E+00
      21    -1     0     0   501   502  0.000000000E+00  0.000000000E+00 -1.278527975E+02  1.278527975E+02  0.000000000E+00  0.00000E+00  9.000E+00
      25     1     1     2     0     0 -8.546874012E+01  1.715056565E+02  1.877760937E+02  2.959796566E+02  1.250000000E+02  0.00000E+00  9.000E+00
      25     1     1     2     0     0  1.641079805E+02 -1.803351385E+02  2.614037115E+02  3.786939289E+02  1.250000000E+02  0.00000E+00  9.000E+00
      21     1     1     2   501   511 -7.863924038E+01  8.829482011E+00  8.853053333E+01  1.187423480E+02  1.907348633E-06  0.00000E+00  9.000E+00
#rwgt            1           1   3.2361264353165130E-002           5       47377           0
</event>
<event>
      5   9999  3.79277E-02  1.61196E+01 -1.00000E+00  1.74488E-01
      21    -1     0     0   512   501  0.000000000E+00  0.000000000E+00  5.003544250E+01  5.003544250E+01  0.000000000E+00  0.00000E+00  9.000E+00
      21    -1     0     0   501   502  0.000000000E+00  0.000000000E+00 -8.727285585E+02  8.727285585E+02  0.000000000E+00  0.00000E+00  9.000E+00
      25     1     1     2     0     0  8.661708269E+01 -1.116852729E+02 -2.837664474E+02  3.407704739E+02  1.250000000E+02  0.00000E+00  9.000E+00
      25     1     1     2     0     0 -8.959374847E+01  9.584291493E+01 -5.357459870E+02  5.655631413E+02  1.250000000E+02  0.00000E+00  9.000E+00
      21     1     1     2   512   502  2.976665787E+00  1.584235794E+01 -3.180681532E+00  1.643038586E+01  1.397852826E-07  0.00000E+00  9.000E+00
#rwgt            1           1   5.0646663985827102E-002           5       47502           0
</event>
<event>
      5   9999  3.79277E-02  6.48669E+01 -1.00000E+00  1.32918E-01
      21    -1     0     0   502   501  0.000000000E+00  0.000000000E+00  2.120425788E+03  2.120425788E+03  0.000000000E+00  0.00000E+00  9.000E+00
      21    -1     0     0   511   502  0.000000000E+00  0.000000000E+00 -2.980748069E+01  2.980748069E+01  0.000000000E+00  0.00000E+00  9.000E+00
      25     1     1     2     0     0 -3.282409355E+01  1.208520918E+02  1.189986451E+03  1.203069159E+03  1.250000000E+02  0.00000E+00  9.000E+00
      25     1     1     2     0     0  4.728518143E+01 -1.840865060E+02  7.297543841E+02  7.643887696E+02  1.250000000E+02  0.00000E+00  9.000E+00
      21     1     1     2   511   501 -1.446108788E+01  6.323441413E+01  1.708774723E+02  1.827753395E+02  2.697398305E-06  0.00000E+00  9.000E+00
#rwgt            1           1   4.2103916615711771E-002           5       47703           0
</event>
<event>
      5   9999  3.79277E-02  9.72041E+01 -1.00000E+00  1.24384E-01
      21    -1     0     0   512   501  0.000000000E+00  0.000000000E+00  1.223073106E+02  1.223073106E+02  0.000000000E+00  0.00000E+00  9.000E+00
      21    -1     0     0   501   502  0.000000000E+00  0.000000000E+00 -1.386413156E+03  1.386413156E+03  0.000000000E+00  0.00000E+00  9.000E+00
      25     1     1     2     0     0 -1.110765454E+02  3.223091735E+01 -4.576974865E+02  4.883531715E+02  1.250000000E+02  0.00000E+00  9.000E+00
      25     1     1     2     0     0  2.041827763E+02 -6.015716126E+01 -8.699124525E+02  9.042577980E+02  1.250000000E+02  0.00000E+00  9.000E+00
      21     1     1     2   512   502 -9.310623091E+01  2.792624391E+01  6.350409386E+01  1.161094969E+02  4.211311753E-06  0.00000E+00  9.000E+00
#rwgt            2          11   2.9820253919255694E-003           5       47789           0
</event>
<event>
      5   9999  3.79277E-02  1.28952E+01 -1.00000E+00  1.83801E-01
      21    -1     0     0   502   501  0.000000000E+00  0.000000000E+00  9.054290467E+02  9.054290467E+02  0.000000000E+00  0.00000E+00  9.000E+00
      21    -1     0     0   501   511  0.000000000E+00  0.000000000E+00 -5.070186128E+01  5.070186128E+01  0.000000000E+00  0.00000E+00  9.000E+00
      25     1     1     2     0     0  1.042880035E+02 -5.762886318E+01  1.733708451E+02  2.447029290E+02  1.250000000E+02  0.00000E+00  9.000E+00
      25     1     1     2     0     0 -1.059263712E+02  4.483813904E+01  6.767356546E+02  6.977298912E+02  1.250000000E+02  0.00000E+00  9.000E+00
      21     1     1     2   502   511  1.638367754E+00  1.279072414E+01  4.620685749E+00  1.369808781E+01  3.097148194E-07  0.00000E+00  9.000E+00
#rwgt            1           1   4.1683019618515262E-002           5       47809           0
</event>
<event>
      5   9999  3.79277E-02  1.98746E+01 -1.00000E+00  1.66595E-01
      21    -1     0     0   502   501  0.000000000E+00  0.000000000E+00  4.916387760E+02  4.916387760E+02  0.000000000E+00  0.00000E+00  9.000E+00
       1    -1     0     0   501     0  0.000000000E+00  0.000000000E+00 -1.131549662E+03  1.131549662E+03  0.000000000E+00  0.00000E+00  9.000E+00
      25     1     1     2     0     0 -1.215306127E+02  1.616111093E+02  2.033205514E+02  3.128131824E+02  1.250000000E+02  0.00000E+00  9.000E+00
      25     1     1     2     0     0  1.086820770E+02 -1.464481753E+02  1.811318467E+02  2.858191872E+02  1.250000000E+02  0.00000E+00  9.000E+00
       1     1     1     2   502     0  1.284853568E+01 -1.516293397E+01 -1.024363284E+03  1.024556068E+03  1.525878906E-05  0.00000E+00  9.000E+00
#rwgt            1           1   3.1651218471934466E-002           5       48175           0
</event>
<event>
      5   9999 -3.79277E-02  5.07104E+01 -1.00000E+00  1.38727E-01
      21    -1     0     0   502   501  0.000000000E+00  0.000000000E+00  2.184416866E+03  2.184416866E+03  0.000000000E+00  0.00000E+00  9.000E+00
      -2    -1     0     0     0   502  0.000000000E+00  0.000000000E+00 -1.243731124E+02  1.243731124E+02  0.000000000E+00  0.00000E+00  9.000E+00
      25     1     1     2     0     0  1.738763060E+01 -2.166711385E+02  1.175548603E+03  1.201993440E+03  1.250000000E+02  0.00000E+00  9.000E+00
      25     1     1     2     0     0 -5.402986781E+01  1.816155586E+02  9.760700870E+02  1.002118382E+03  1.250000000E+02  0.00000E+00  9.000E+00
      -2     1     1     2     0   501  3.664223721E+01  3.505557993E+01 -9.157493671E+01  1.046781556E+02  2.336015456E-06  0.00000E+00  9.000E+00
#rwgt            1           1 -0.10644714053332442                5       48377           0
</event>
<event>
      5   9999 -3.79277E-02  1.53150E+02 -1.00000E+00  1.16037E-01
      21    -1     0     0   502   501  0.000000000E+00  0.000000000E+00  2.502444888E+02  2.502444888E+02  0.000000000E+00  0.00000E+00  9.000E+00
      21    -1     0     0   511   502  0.000000000E+00  0.000000000E+00 -3.451981241E+02  3.451981241E+02  0.000000000E+00  0.00000E+00  9.000E+00
      25     1     1     2     0     0 -1.449463489E+02 -1.685227107E+02  6.471863234E+00  2.551004373E+02  1.250000000E+02  0.00000E+00  9.000E+00
      25     1     1     2     0     0  1.149696860E+02  1.833475081E+01 -6.616111350E+01  1.831842917E+02  1.250000000E+02  0.00000E+00  9.000E+00
      21     1     1     2   511   501  2.997666285E+01  1.501879599E+02 -3.526438501E+01  1.571578839E+02  9.536743164E-07  0.00000E+00  9.000E+00
#rwgt            1           1 -0.14001365401346413                5       48461           0
</event>
<event>
      5   9999  3.79277E-02  4.43539E+01 -1.00000E+00  1.42111E-01
      21    -1     0     0   502   501  0.000000000E+00  0.000000000E+00  2.910702958E+01  2.910702958E+01  0.000000000E+00  0.00000E+00  9.000E+00
      21    -1     0     0   501   512  0.000000000E+00  0.000000000E+00 -1.971427400E+03  1.971427400E+03  0.000000000E+00  0.00000E+00  9.000E+00
      25     1     1     2     0     0 -1.614300426E+02  7.698855574E+01 -9.992063336E+02  1.022753731E+03  1.250000000E+02  0.00000E+00  9.000E+00
      25     1     1     2     0     0  1.292087948E+02 -1.074690600E+02 -7.003873767E+02  7.310348753E+02  1.250000000E+02  0.00000E+00  9.000E+00
      21     1     1     2   502   512  3.222124775E+01  3.048050423E+01 -2.427266599E+02  2.467458234E+02  3.814697266E-06  0.00000E+00  9.000E+00
#rwgt            1           1   3.7188050768702109E-002           5       48552           0
</event>
<event>
      5   9999  3.79277E-02  7.29972E+01 -1.00000E+00  1.30305E-01
       4    -1     0     0   502     0  0.000000000E+00  0.000000000E+00  4.837834213E+02  4.837834213E+02  0.000000000E+00  0.00000E+00  9.000E+00
      21    -1     0     0   501   502  0.000000000E+00  0.000000000E+00 -3.722160915E+02  3.722160915E+02  0.000000000E+00  0.00000E+00  9.000E+00
      25     1     1     2     0     0  1.699855155E+02 -1.878695646E+01 -1.917368130E+02  2.857201965E+02  1.250000000E+02  0.00000E+00  9.000E+00
      25     1     1     2     0     0 -1.116141995E+02  6.262047617E+01 -6.836125221E+01  1.915132225E+02  1.250000000E+02  0.00000E+00  9.000E+00
       4     1     1     2   501     0 -5.837131600E+01 -4.383351971E+01  3.716653950E+02  3.787660938E+02  0.000000000E+00  0.00000E+00  9.000E+00
#rwgt            1           1   2.2384788359259434E-002           5       48686           0
</event>
<event>
      5   9999  3.79277E-02  2.45686E+02 -1.00000E+00  1.08489E-01
       2    -1     0     0   502     0  0.000000000E+00  0.000000000E+00  5.853152101E+02  5.853152101E+02  0.000000000E+00  0.00000E+00  9.000E+00
      21    -1     0     0   501   502  0.000000000E+00  0.000000000E+00 -2.564499596E+02  2.564499596E+02  0.000000000E+00  0.00000E+00  9.000E+00
      25     1     1     2     0     0  1.422169080E+02 -1.208906279E+02 -4.291028287E+01  2.287061110E+02  1.250000000E+02  0.00000E+00  9.000E+00
      25     1     1     2     0     0  9.779369883E+01  1.733954540E+02  1.311904463E+02  2.691942128E+02  1.250000000E+02  0.00000E+00  9.000E+00
       2     1     1     2   501     0 -2.400106068E+02 -5.250482606E+01  2.405850870E+02  3.438648459E+02  6.607249480E-06  0.00000E+00  9.000E+00
#rwgt            1           1   4.3429064799031601E-002           5       48778           0
</event>
<event>
      5   9999  3.79277E-02  5.26477E+00 -1.00000E+00  2.34666E-01
      21    -1     0     0   502   501  0.000000000E+00  0.000000000E+00  2.438458845E+03  2.438458845E+03  0.000000000E+00  0.00000E+00  9.000E+00
      21    -1     0     0   501   511  0.000000000E+00  0.000000000E+00 -3.764077871E+02  3.764077871E+02  0.000000000E+00  0.00000E+00  9.000E+00
      25     1     1     2     0     0 -1.668095942E+02  6.294313897E+01  1.168727027E+03  1.188837728E+03  1.250000000E+02  0.00000E+00  9.000E+00
      25     1     1     2     0     0  1.652738880E+02 -6.797895052E+01  1.250217659E+03  1.269096446E+03  1.250000000E+02  0.00000E+00  9.000E+00
      21     1     1     2   502   511  1.535706226E+00  5.035811556E+00 -3.568936279E+02  3.569324578E+02  5.394796609E-06  0.00000E+00  9.000E+00
#rwgt            1           1   6.2791313050765060E-002           5       48839           0
</event>
<event>
      5   9999 -3.79277E-02  3.09197E+01 -1.00000E+00  1.52134E-01
      21    -1     0     0   502   501  0.000000000E+00  0.000000000E+00  1.193512715E+03  1.193512715E+03  0.000000000E+00  0.00000E+00  9.000E+00
      21    -1     0     0   501   512  0.000000000E+00  0.000000000E+00 -2.365968851E+02  2.365968851E+02  0.000000000E+00  0.00000E+00  9.000E+00
      25     1     1     2     0     0  8.838122817E+01  1.068985542E+02  6.572328611E+02  6.832412283E+02  1.250000000E+02  0.00000E+00  9.000E+00
      25     1     1     2     0     0 -1.099451399E+02 -8.473939068E+01  5.054127145E+02  5.388280896E+02  1.250000000E+02  0.00000E+00  9.000E+00
      21     1     1     2   502   512  2.156391177E+01 -2.215916353E+01 -2.057297457E+02  2.080402823E+02  4.672030912E-06  0.00000E+00  9.000E+00
#rwgt            1           1 -0.30050467265833580                5       49188           0
</event>
<event>
      5   9999  3.79277E-02  1.00156E+01 -1.00000E+00  1.95679E-01
      21    -1     0     0   502   501  0.000000000E+00  0.000000000E+00  8.409881350E+02  8.409881350E+02  0.000000000E+00  0.00000E+00  9.000E+00
      21    -1     0     0   501   511  0.000000000E+00  0.000000000E+00 -8.629274215E+01  8.629274215E+01  0.000000000E+00  0.00000E+00  9.000E+00
      25     1     1     2     0     0 -9.012151167E+01  1.623030865E+02  4.763787174E+02  5.263324626E+02  1.250000000E+02  0.00000E+00  9.000E+00
      25     1     1     2     0     0  8.929250201E+01 -1.722842773E+02  2.991396518E+02  3.778419702E+02  1.250000000E+02  0.00000E+00  9.000E+00
      21     1     1     2   502   511  8.290096547E-01  9.981190782E+00 -2.082297640E+01  2.310644439E+01  1.143415337E-06  0.00000E+00  9.000E+00
#rwgt            1           1   3.3353314402173546E-002           5       49333           0
</event>
<event>
      5   9999  3.79277E-02  6.45915E+01 -1.00000E+00  1.33014E-01
       2    -1     0     0   502     0  0.000000000E+00  0.000000000E+00  6.748607797E+02  6.748607797E+02  0.000000000E+00  0.00000E+00  9.000E+00
      21    -1     0     0   501   502  0.000000000E+00  0.000000000E+00 -3.949940934E+02  3.949940934E+02  0.000000000E+00  0.00000E+00  9.000E+00
      25     1     1     2     0     0 -8.330903668E+01  1.584374801E+02 -2.114499236E+02  3.039389756E+02  1.250000000E+02  0.00000E+00  9.000E+00
      25     1     1     2     0     0  1.400215525E+02 -1.275221418E+02 -4.023011517E+01  2.304590939E+02  1.250000000E+02  0.00000E+00  9.000E+00
       2     1     1     2   501     0 -5.671251581E+01 -3.091533825E+01  5.315467251E+02  5.354568036E+02  7.629394531E-06  0.00000E+00  9.000E+00
#rwgt            1           1   4.0332763618655482E-002           5       49596           0
</event>
<event>
      5   9999  3.79277E-02  4.21752E+01 -1.00000E+00  1.43428E-01
      21    -1     0     0   502   511  0.000000000E+00  0.000000000E+00  4.761012645E+02  4.761012645E+02  0.000000000E+00  0.00000E+00  9.000E+00
      21    -1     0     0   501   502  0.000000000E+00  0.000000000E+00 -1.735533595E+02  1.735533595E+02  0.000000000E+00  0.00000E+00  9.000E+00
      25     1     1     2     0     0  7.470093138E+01 -1.053348239E+02  1.324095157E+02  2.232329145E+02  1.250000000E+02  0.00000E+00  9.000E+00
      25     1     1     2     0     0 -8.891482312E+01  1.450426201E+02 -3.760975836E+01  2.144357744E+02  1.250000000E+02  0.00000E+00  9.000E+00
      21     1     1     2   501   511  1.421389174E+01 -3.970779621E+01  2.077481477E+02  2.119859351E+02  2.697398305E-06  0.00000E+00  9.000E+00
#rwgt            1           1   3.5626567039664270E-002           5       49698           0
</event>
<event>
      5   9999  3.79277E-02  2.11722E+01 -1.00000E+00  1.64354E-01
      21    -1     0     0   502   501  0.000000000E+00  0.000000000E+00  2.974196740E+02  2.974196740E+02  0.000000000E+00  0.00000E+00  9.000E+00
      21    -1     0     0   512   502  0.000000000E+00  0.000000000E+00 -2.382293023E+02  2.382293023E+02  0.000000000E+00  0.00000E+00  9.000E+00
      25     1     1     2     0     0  1.155648292E+02 -1.969723074E+02  4.259006527E+01  2.638033989E+02  1.250000000E+02  0.00000E+00  9.000E+00
      25     1     1     2     0     0 -1.038780669E+02  1.793177779E+02  3.406566358E+01  2.443992383E+02  1.250000000E+02  0.00000E+00  9.000E+00
      21     1     1     2   512   501 -1.168676221E+01  1.765452952E+01 -1.746535721E+01  2.744633903E+01  2.384185791E-07  0.00000E+00  9.000E+00
#rwgt            1           1  0.19407760479445010                5       49825           0
</event>
<event>
      5   9999  3.79277E-02  3.47648E+01 -1.00000E+00  1.48722E-01
      21    -1     0     0   502   501  0.000000000E+00  0.000000000E+00  2.877098531E+02  2.877098531E+02  0.000000000E+00  0.00000E+00  9.000E+00
      21    -1     0     0   501   511  0.000000000E+00  0.000000000E+00 -8.808348554E+02  8.808348554E+02  0.000000000E+00  0.00000E+00  9.000E+00
      25     1     1     2     0     0 -2.538742341E+00 -4.656961885E+02 -3.009230551E+02  5.683828554E+02  1.250000000E+02  0.00000E+00  9.000E+00
      25     1     1     2     0     0  3.708662009E+01  4.618182402E+02 -2.377003786E+02  5.355165491E+02  1.250000000E+02  0.00000E+00  9.000E+00
      21     1     1     2   502   511 -3.454787775E+01  3.877948342E+00 -5.450156868E+01  6.464530400E+01  6.743495762E-07  0.00000E+00  9.000E+00
#rwgt            1           1  0.11053677307090931                5       50066           0
</event>
<event>
      5   9999  3.79277E-02  8.43325E+01 -1.00000E+00  1.27251E-01
      21    -1     0     0   502   501  0.000000000E+00  0.000000000E+00  5.377635494E+02  5.377635494E+02  0.000000000E+00  0.00000E+00  9.000E+00
      -3    -1     0     0     0   502  0.000000000E+00  0.000000000E+00 -3.438131890E+02  3.438131890E+02  0.000000000E+00  0.00000E+00  9.000E+00
      25     1     1     2     0     0  9.988084064E+01 -1.460011988E+02  8.791290821E+01  2.337652921E+02  1.250000000E+02  0.00000E+00  9.000E+00
      25     1     1     2     0     0 -1.168111140E+02  6.338562388E+01  3.472603001E+02  3.922719588E+02  1.250000000E+02  0.00000E+00  9.000E+00
      -3     1     1     2     0   501  1.693027335E+01  8.261557489E+01 -2.412228478E+02  2.555394875E+02  2.697398305E-06  0.00000E+00  9.000E+00
#rwgt            1           1   3.6547554718985395E-002           5       50481           0
</event>
<event>
      5   9999  3.79277E-02  2.55238E+01 -1.00000E+00  1.58079E-01
      21    -1     0     0   511   501  0.000000000E+00  0.000000000E+00  1.167745892E+02  1.167745892E+02  0.000000000E+00  0.00000E+00  9.000E+00
      21    -1     0     0   501   502  0.000000000E+00  0.000000000E+00 -5.200601731E+02  5.200601731E+02  0.000000000E+00  0.00000E+00  9.000E+00
      25     1     1     2     0     0  3.112521639E+01  1.199452911E+02 -2.548695931E+01  1.778489164E+02  1.250000000E+02  0.00000E+00  9.000E+00
      25     1     1     2     0     0 -5.470594702E+01 -1.101772552E+02 -3.922387848E+02  4.296603688E+02  1.250000000E+02  0.00000E+00  9.000E+00
      21     1     1     2   511   502  2.358073062E+01 -9.768035882E+00  1.444016025E+01  2.932547715E+01  0.000000000E+00  0.00000E+00  9.000E+00
#rwgt            1           1   2.2419681012016635E-002           5       50551           0
</event>
<event>
      5   9999  3.79277E-02  3.04160E+01 -1.00000E+00  1.52626E-01
      21    -1     0     0   512   501  0.000000000E+00  0.000000000E+00  1.481588613E+02  1.481588613E+02  0.000000000E+00  0.00000E+00  9.000E+00
      21    -1     0     0   501   502  0.000000000E+00  0.000000000E+00 -6.401019854E+02  6.401019854E+02  0.000000000E+00  0.00000E+00  9.000E+00
      25     1     1     2     0     0 -9.795460150E+01  2.999547389E+01 -4.994326604E+02  5.249312475E+02  1.250000000E+02  0.00000E+00  9.000E+00
      25     1     1     2     0     0  7.125582025E+01 -1.542473315E+01 -8.372114566E+01  1.671811728E+02  1.250000000E+02  0.00000E+00  9.000E+00
      21     1     1     2   512   502  2.669878125E+01 -1.457074074E+01  9.121068191E+01  9.614842640E+01  1.348699152E-06  0.00000E+00  9.000E+00
#rwgt            1           1   4.3823737834388095E-002           5       50711           0
</event>
<event>
      5   9999  3.79277E-02  7.42731E+01 -1.00000E+00  1.29931E-01
      21    -1     0     0   502   511  0.000000000E+00  0.000000000E+00  1.018177112E+03  1.018177112E+03  0.000000000E+00  0.00000E+00  9.000E+00
      21    -1     0     0   501   502  0.000000000E+00  0.000000000E+00 -1.883890105E+02  1.883890105E+02  0.000000000E+00  0.00000E+00  9.000E+00
      25     1     1     2     0     0  6.870712520E+01  2.149823867E+02  1.135149218E+01  2.582478500E+02  1.250000000E+02  0.00000E+00  9.000E+00
      25     1     1     2     0     0 -1.111608271E+02 -1.540382932E+02  1.425956573E+02  2.684083581E+02  1.250000000E+02  0.00000E+00  9.000E+00
      21     1     1     2   501   511  4.245370190E+01 -6.094409353E+01  6.758409522E+02  6.799099146E+02  7.629394531E-06  0.00000E+00  9.000E+00
#rwgt            1           1  0.12949447541324818                5       50847           0
</event>
<event>
      5   9999  3.79277E-02  1.39137E+02 -1.00000E+00  1.17702E-01
      21    -1     0     0   502   501  0.000000000E+00  0.000000000E+00  3.392427259E+02  3.392427259E+02  0.000000000E+00  0.00000E+00  9.000E+00
      -3    -1     0     0     0   502  0.000000000E+00  0.000000000E+00 -4.369834882E+02  4.369834882E+02  0.000000000E+00  0.00000E+00  9.000E+00
      25     1     1     2     0     0  1.902151120E+02  9.157776561E+01 -2.118506346E+02  3.241511489E+02  1.250000000E+02  0.00000E+00  9.000E+00
      25     1     1     2     0     0 -1.502746168E+02 -2.248584213E+02  6.921723654E+01  3.058754582E+02  1.250000000E+02  0.00000E+00  9.000E+00
      -3     1     1     2     0   501 -3.994049519E+01  1.332806557E+02  4.489263573E+01  1.461996070E+02  2.336015456E-06  0.00000E+00  9.000E+00
#rwgt            2           8   3.7517780788206992E-006           5       50957           0
</event>
<event>
      5   9999  3.79277E-02  5.42068E+01 -1.00000E+00  1.37103E-01
      21    -1     0     0   502   501  0.000000000E+00  0.000000000E+00  3.998915308E+01  3.998915308E+01  0.000000000E+00  0.00000E+00  9.000E+00
       2    -1     0     0   501     0  0.000000000E+00  0.000000000E+00 -2.317578132E+03  2.317578132E+03  0.000000000E+00  0.00000E+00  9.000E+00
      25     1     1     2     0     0  1.191434549E+02  1.422127932E+02 -8.421529048E+02  8.713587989E+02  1.250000000E+02  0.00000E+00  9.000E+00
      25     1     1     2     0     0 -1.726904983E+02 -1.337815378E+02 -6.223169167E+02  6.712844798E+02  1.250000000E+02  0.00000E+00  9.000E+00
       2     1     1     2   502     0  5.354704335E+01 -8.431255447E+00 -8.131191579E+02  8.149240068E+02  1.078959322E-05  0.00000E+00  9.000E+00
#rwgt            1           1   3.9815543167432015E-002           5       51096           0
</event>
<event>
      5   9999 -3.79277E-02  2.10262E+01 -1.00000E+00  1.64596E-01
      21    -1     0     0   502   511  0.000000000E+00  0.000000000E+00  7.784674209E+02  7.784674209E+02  0.000000000E+00  0.00000E+00  9.000E+00
      21    -1     0     0   501   502  0.000000000E+00  0.000000000E+00 -7.760975691E+01  7.760975691E+01  0.000000000E+00  0.00000E+00  9.000E+00
      25     1     1     2     0     0 -1.328678782E+02 -5.549758858E+01  5.822027998E+02  6.126328064E+02  1.250000000E+02  0.00000E+00  9.000E+00
      25     1     1     2     0     0  1.147873041E+02  6.623046669E+01  7.901317634E+01  1.985716041E+02  1.250000000E+02  0.00000E+00  9.000E+00
      21     1     1     2   501   511  1.808057406E+01 -1.073287811E+01  3.964168778E+01  4.487276725E+01  8.259061849E-07  0.00000E+00  9.000E+00
#rwgt            1           1  -3.2837297411042805E-002           5       51210           0
</event>
<event>
      5   9999  3.79277E-02  8.59398E+01 -1.00000E+00  1.26862E-01
      21    -1     0     0   502   501  0.000000000E+00  0.000000000E+00  1.017059922E+03  1.017059922E+03  0.000000000E+00  0.00000E+00  9.000E+00
      21    -1     0     0   501   512  0.000000000E+00  0.000000000E+00 -1.173475124E+02  1.173475124E+02  0.000000000E+00  0.00000E+00  9.000E+00
      25     1     1     2     0     0  1.150480486E+02  2.839790330E+02  5.426338248E+02  6.355758118E+02  1.250000000E+02  0.00000E+00  9.000E+00
      25     1     1     2     0     0 -1.154182510E+02 -1.980399902E+02  2.865542587E+02  3.876590688E+02  1.250000000E+02  0.00000E+00  9.000E+00
      21     1     1     2   502   512  3.702024522E-01 -8.593904283E+01  7.052432564E+01  1.111725534E+02  1.651812370E-06  0.00000E+00  9.000E+00
#rwgt            1           1   2.9094354326574198E-002           5       51474           0
</event>
<event>
      5   9999  3.79277E-02  6.21698E+01 -1.00000E+00  1.33884E-01
      21    -1     0     0   502   501  0.000000000E+00  0.000000000E+00  1.477889416E+02  1.477889416E+02  0.000000000E+00  0.00000E+00  9.000E+00
      21    -1     0     0   501   511  0.000000000E+00  0.000000000E+00 -1.155681853E+03  1.155681853E+03  0.000000000E+00  0.00000E+00  9.000E+00
      25     1     1     2     0     0  1.498478804E+02  3.387842521E+02 -5.969557207E+02  7.135897205E+02  1.250000000E+02  0.00000E+00  9.000E+00
      25     1     1     2     0     0 -1.721993062E+02 -2.807713469E+02 -3.000404099E+02  4.627465806E+02  1.250000000E+02  0.00000E+00  9.000E+00
      21     1     1     2   502   511  2.235142587E+01 -5.801290518E+01 -1.108967805E+02  1.271344931E+02  1.907348633E-06  0.00000E+00  9.000E+00
#rwgt            1           1   3.2527156378737071E-002           5       51621           0
</event>
<event>
      5   9999  3.79277E-02  1.26883E+01 -1.00000E+00  1.84517E-01
      21    -1     0     0   502   512  0.000000000E+00  0.000000000E+00  2.888422879E+02  2.888422879E+02  0.000000000E+00  0.00000E+00  9.000E+00
      21    -1     0     0   501   502  0.000000000E+00  0.000000000E+00 -2.524011857E+02  2.524011857E+02  0.000000000E+00  0.00000E+00  9.000E+00
      25     1     1     2     0     0  1.308427182E+02 -1.064320236E+02 -2.851140725E+01  2.118619666E+02  1.250000000E+02  0.00000E+00  9.000E+00
      25     1     1     2     0     0 -1.427738079E+02  1.021143392E+02 -4.379438041E+01  2.198968991E+02  1.250000000E+02  0.00000E+00  9.000E+00
      21     1     1     2   501   512  1.193108969E+01  4.317684389E+00  1.087468899E+02  1.094846079E+02  0.000000000E+00  0.00000E+00  9.000E+00
#rwgt            1           1   3.6579124749450964E-002           5       51823           0
</event>
<event>
      5   9999  3.79277E-02  3.58873E+01 -1.00000E+00  1.47824E-01
      21    -1     0     0   502   511  0.000000000E+00  0.000000000E+00  1.572412522E+02  1.572412522E+02  0.000000000E+00  0.00000E+00  9.000E+00
      21    -1     0     0   501   502  0.000000000E+00  0.000000000E+00 -5.467747803E+02  5.467747803E+02  0.000000000E+00  0.00000E+00  9.000E+00
      25     1     1     2     0     0 -2.123652377E+02  3.024057708E+01 -3.574452163E+02  4.352075015E+02  1.250000000E+02  0.00000E+00  9.000E+00
      25     1     1     2     0     0  1.927171946E+02 -2.097309786E-01 -3.672312633E+01  2.326231912E+02  1.250000000E+02  0.00000E+00  9.000E+00
      21     1     1     2   501   511  1.964804307E+01 -3.003084610E+01  4.634814554E+00  3.618533985E+01  2.308477966E-07  0.00000E+00  9.000E+00
#rwgt            1           1   5.0752299982931071E-002           5       52036           0
</event>
<event>
      5   9999  3.79277E-02  1.02658E+02 -1.00000E+00  1.23318E-01
      21    -1     0     0   502   512  0.000000000E+00  0.000000000E+00  4.738885057E+01  4.738885057E+01  0.000000000E+00  0.00000E+00  9.000E+00
      21    -1     0     0   501   502  0.000000000E+00  0.000000000E+00 -1.382872181E+03  1.382872181E+03  0.000000000E+00  0.00000E+00  9.000E+00
      25     1     1     2     0     0 -7.806303720E+01 -8.246912072E+01 -1.049818743E+03  1.063315281E+03  1.250000000E+02  0.00000E+00  9.000E+00
      25     1     1     2     0     0  2.466398874E+01 -5.208120465E+00 -1.645972217E+02  2.082130693E+02  1.250000000E+02  0.00000E+00  9.000E+00
      21     1     1     2   501   512  5.339904847E+01  8.767724119E+01 -1.210673652E+02  1.587326807E+02  3.568322551E-06  0.00000E+00  9.000E+00
#rwgt            1           1   4.0347725328083540E-002           5       52266           0
</event>
<event>
      5   9999  3.79277E-02  5.69935E+01 -1.00000E+00  1.35907E-01
      21    -1     0     0   502   501  0.000000000E+00  0.000000000E+00  4.753786154E+01  4.753786154E+01  0.000000000E+00  0.00000E+00  9.000E+00
       1    -1     0     0   501     0  0.000000000E+00  0.000000000E+00 -2.801420453E+03  2.801420453E+03  0.000000000E+00  0.00000E+00  9.000E+00
      25     1     1     2     0     0  1.322379562E+02  2.711583632E+01 -3.117621277E+02  3.619983010E+02  1.250000000E+02  0.00000E+00  9.000E+00
      25     1     1     2     0     0 -1.819298515E+02  7.942776816E-01 -5.318198194E+02  5.758093626E+02  1.250000000E+02  0.00000E+00  9.000E+00
       1     1     1     2   502     0  4.969189533E+01 -2.791011401E+01 -1.910300644E+03  1.911150651E+03  0.000000000E+00  0.00000E+00  9.000E+00
#rwgt            2          12   1.5120579314142438E-004           5       52332           0
</event>
<event>
      5   9999  3.79277E-02  3.39098E+01 -1.00000E+00  1.49434E-01
      21    -1     0     0   502   511  0.000000000E+00  0.000000000E+00  4.300069854E+02  4.300069854E+02  0.000000000E+00  0.00000E+00  9.000E+00
      21    -1     0     0   501   502  0.000000000E+00  0.000000000E+00 -1.218480447E+02  1.218480447E+02  0.000000000E+00  0.00000E+00  9.000E+00
      25     1     1     2     0     0 -3.263650433E+01 -1.598977873E+02  1.769306752E+02  2.712229851E+02  1.250000000E+02  0.00000E+00  9.000E+00
      25     1     1     2     0     0 -1.269628699E+00  1.594025022E+02  7.707949728E+01  2.167418247E+02  1.250000000E+02  0.00000E+00  9.000E+00
      21     1     1     2   501   511  3.390613303E+01  4.952850780E-01  5.414876817E+01  6.389022037E+01  0.000000000E+00  0.00000E+00  9.000E+00
#rwgt            1           1   1.1569232552157247E-002           5       52351           0
</event>
<event>
      5   9999  3.79277E-02  8.05932E+01 -1.00000E+00  1.28194E-01
      21    -1     0     0   502   501  0.000000000E+00  0.000000000E+00  7.167964223E+02  7.167964223E+02  0.000000000E+00  0.00000E+00  9.000E+00
      21    -1     0     0   512   502  0.000000000E+00  0.000000000E+00 -2.854029417E+02  2.854029417E+02  0.000000000E+00  0.00000E+00  9.000E+00
      25     1     1     2     0     0 -1.140917757E+02  1.038756759E+02  5.515550496E+02  5.862124717E+02  1.250000000E+02  0.00000E+00  9.000E+00
      25     1     1     2     0     0  3.424476454E+01 -9.293432115E+01  9.540988982E+01  1.858427804E+02  1.250000000E+02  0.00000E+00  9.000E+00
      21     1     1     2   512   501  7.984701113E+01 -1.094135478E+01 -2.155714587E+02  2.301441119E+02  6.031565972E-06  0.00000E+00  9.000E+00
#rwgt            1           1   3.8948050669412419E-002           5       52450           0
</event>
<event>
      5   9999 -3.79277E-02  1.48158E+01 -1.00000E+00  1.77890E-01
      21    -1     0     0   502   501  0.000000000E+00  0.000000000E+00  9.696793852E+02  9.696793852E+02  0.000000000E+00  0.00000E+00  9.000E+00
      21    -1     0     0   501   511  0.000000000E+00  0.000000000E+00 -8.356125668E+01  8.356125668E+01  0.000000000E+00  0.00000E+00  9.000E+00
      25     1     1     2     0     0  1.718055805E+02 -4.128480832E+01  5.753989987E+02  6.147606043E+02  1.250000000E+02  0.00000E+00  9.000E+00
      25     1     1     2     0     0 -1.841594587E+02  4.946349981E+01  3.378371965E+02  4.075786002E+02  1.250000000E+02  0.00000E+00  9.000E+00
      21     1     1     2   502   511  1.235387819E+01 -8.178691495E+00 -2.711806658E+01  3.090143745E+01  1.215700987E-06  0.00000E+00  9.000E+00
#rwgt            1           1 -0.16878106681060245                5       52595           0
</event>
<event>
      5   9999  3.79277E-02  1.80514E+02 -1.00000E+00  1.13293E-01
      21    -1     0     0   502   501  0.000000000E+00  0.000000000E+00  1.315674819E+02  1.315674819E+02  0.000000000E+00  0.00000E+00  9.000E+00
      21    -1     0     0   512   502  0.000000000E+00  0.000000000E+00 -7.427175425E+02  7.427175425E+02  0.000000000E+00  0.00000E+00  9.000E+00
      25     1     1     2     0     0 -1.016641128E+02  1.122507233E+02 -1.661016520E+02  2.571975418E+02  1.250000000E+02  0.00000E+00  9.000E+00
      25     1     1     2     0     0  2.061765790E+02  3.493075722E+01 -2.171206397E+02  3.263361943E+02  1.250000000E+02  0.00000E+00  9.000E+00
      21     1     1     2   512   501 -1.045124662E+02 -1.471814805E+02 -2.279277689E+02  2.907512883E+02  2.697398305E-06  0.00000E+00  9.000E+00
#rwgt            2          11   1.7630101803582027E-003           5       52826           0
</event>
<event>
      5   9999  3.79277E-02  3.46536E+01 -1.00000E+00  1.48814E-01
      21    -1     0     0   502   501  0.000000000E+00  0.000000000E+00  1.983187383E+02  1.983187383E+02  0.000000000E+00  0.00000E+00  9.000E+00
      21    -1     0     0   501   511  0.000000000E+00  0.000000000E+00 -4.398951188E+02  4.398951188E+02  0.000000000E+00  0.00000E+00  9.000E+00
      25     1     1     2     0     0  1.898719554E+02 -1.260467953E+02 -1.815983073E+02  3.170837417E+02  1.250000000E+02  0.00000E+00  9.000E+00
      25     1     1     2     0     0 -1.711828416E+02  1.552287430E+02 -1.338883241E+01  2.630661300E+02  1.250000000E+02  0.00000E+00  9.000E+00
      21     1     1     2   502   511 -1.868911384E+01 -2.918194766E+01 -4.658924081E+01  5.806398543E+01  0.000000000E+00  0.00000E+00  9.000E+00
#rwgt            1           1   4.1825077495826785E-002           5       52906           0
</event>
<event>
      5   9999  3.79277E-02  1.95121E+01 -1.00000E+00  1.67259E-01
      21    -1     0     0   502   501  0.000000000E+00  0.000000000E+00  1.058339902E+03  1.058339902E+03  0.000000000E+00  0.00000E+00  9.000E+00
      21    -1     0     0   512   502  0.000000000E+00  0.000000000E+00 -9.863560700E+01  9.863560700E+01  0.000000000E+00  0.00000E+00  9.000E+00
      25     1     1     2     0     0 -1.169003246E+02 -3.214323260E+01  3.619150088E+02  4.016296141E+02  1.250000000E+02  0.00000E+00  9.000E+00
      25     1     1     2     0     0  1.087202270E+02  1.442858638E+01  6.649396447E+02  6.854181227E+02  1.250000000E+02  0.00000E+00  9.000E+00
      21     1     1     2   512   501  8.180097603E+00  1.771464622E+01 -6.715035848E+01  6.992777224E+01  0.000000000E+00  0.00000E+00  9.000E+00
#rwgt            1           1   4.2932059696543477E-002           5       53107           0
</event>
<event>
      5   9999  3.79277E-02  1.47602E+01 -1.00000E+00  1.78046E-01
      21    -1     0     0   511   501  0.000000000E+00  0.000000000E+00  2.381109683E+02  2.381109683E+02  0.000000000E+00  0.00000E+00  9.000E+00
      21    -1     0     0   501   502  0.000000000E+00  0.000000000E+00 -7.682851937E+02  7.682851937E+02  0.000000000E+00  0.00000E+00  9.000E+00
      25     1     1     2     0     0 -4.922590790E+01  1.031796911E+02 -7.243965256E+02  7.439385492E+02  1.250000000E+02  0.00000E+00  9.000E+00
      25     1     1     2     0     0  4.141383909E+01 -9.065633377E+01  1.651600921E+02  2.298619867E+02  1.250000000E+02  0.00000E+00  9.000E+00
      21     1     1     2   511   502  7.812068810E+00 -1.252335732E+01  2.906220819E+01  3.259562613E+01  0.000000000E+00  0.00000E+00  9.000E+00
#rwgt            1           1   5.8876163044334170E-002           5       53339           0
</event>
<event>
      5   9999  3.79277E-02  1.04799E+02 -1.00000E+00  1.22919E-01
      21    -1     0     0   502   501  0.000000000E+00  0.000000000E+00  3.727640123E+02  3.727640123E+02  0.000000000E+00  0.00000E+00  9.000E+00
      21    -1     0     0   512   502  0.000000000E+00  0.000000000E+00 -1.266927496E+02  1.266927496E+02  0.000000000E+00  0.00000E+00  9.000E+00
      25     1     1     2     0     0  1.449967634E+01 -9.655532138E+00  1.895804520E+02  2.277481454E+02  1.250000000E+02  0.00000E+00  9.000E+00
      25     1     1     2     0     0  9.026367321E+01  1.238629939E+01  4.556798436E+00  1.547472634E+02  1.250000000E+02  0.00000E+00  9.000E+00
      21     1     1     2   512   501 -1.047633496E+02 -2.730767255E+00  5.193401227E+01  1.169613531E+02  1.651812370E-06  0.00000E+00  9.000E+00
#rwgt            2          11   2.1115499503651558E-003           5       53569           0
</event>
<event>
      5   9999  3.79277E-02  3.92448E+01 -1.00000E+00  1.45355E-01
      21    -1     0     0   502   501  0.000000000E+00  0.000000000E+00  7.706128769E+02  7.706128769E+02  0.000000000E+00  0.00000E+00  9.000E+00
      21    -1     0     0   511   502  0.000000000E+00  0.000000000E+00 -1.948194946E+02  1.948194946E+02  0.000000000E+00  0.00000E+00  9.000E+00
      25     1     1     2     0     0  1.893052732E+01  3.722456335E+01  1.712049895E+02  2.160559682E+02  1.250000000E+02  0.00000E+00  9.000E+00
      25     1     1     2     0     0 -3.882987053E+01 -3.398947400E+00  5.671892984E+02  5.821065296E+02  1.250000000E+02  0.00000E+00  9.000E+00
      21     1     1     2   511   501  1.989934321E+01 -3.382561595E+01 -1.626009055E+02  1.672698736E+02  5.394796609E-06  0.00000E+00  9.000E+00
#rwgt            1           1  0.12385167167972792                5       53589           0
</event>
<event>
      5   9999  3.79277E-02  1.36270E+02 -1.00000E+00  1.18070E-01
      21    -1     0     0   502   501  0.000000000E+00  0.000000000E+00  2.588033006E+02  2.588033006E+02  0.000000000E+00  0.00000E+00  9.000E+00
      21    -1     0     0   512   502  0.000000000E+00  0.000000000E+00 -7.103033065E+02  7.103033065E+02  0.000000000E+00  0.00000E+00  9.000E+00
      25     1     1     2     0     0  2.620452160E+01 -2.201378988E+02 -1.944586132E+02  3.202913107E+02  1.250000000E+02  0.00000E+00  9.000E+00
      25     1     1     2     0     0  3.594048755E+01  3.414126505E+02 -8.592703428E+00  3.654492456E+02  1.250000000E+02  0.00000E+00  9.000E+00
      21     1     1     2   512   501 -6.214500916E+01 -1.212747517E+02 -2.484486893E+02  2.833660509E+02  2.697398305E-06  0.00000E+00  9.000E+00
#rwgt            2          11   1.8697866537554868E-003           5       53681           0
</event>
<event>
      5   9999  3.79277E-02  1.32172E+02 -1.00000E+00  1.18614E-01
      21    -1     0     0   502   511  0.000000000E+00  0.000000000E+00  3.698414814E+02  3.698414814E+02  0.000000000E+00  0.00000E+00  9.000E+00
      21    -1     0     0   501   502  0.000000000E+00  0.000000000E+00 -7.071032162E+02  7.071032162E+02  0.000000000E+00  0.00000E+00  9.000E+00
      25     1     1     2     0     0 -3.197958374E+02 -1.887475867E+02 -3.803224521E+02  5.460450500E+02  1.250000000E+02  0.00000E+00  9.000E+00
      25     1     1     2     0     0  2.154419895E+02  1.076322731E+02 -1.398290564E+02  3.052492786E+02  1.250000000E+02  0.00000E+00  9.000E+00
      21     1     1     2   501   511  1.043538479E+02  8.111531360E+01  1.828897737E+02  2.256503689E+02  5.394796609E-06  0.00000E+00  9.000E+00
#rwgt            1           1   3.6936038720924977E-002           5       53716           0
</event>
<event>
      5   9999  3.79277E-02  4.78707E+01 -1.00000E+00  1.40163E-01
      21    -1     0     0   502   512  0.000000000E+00  0.000000000E+00  2.511944680E+02  2.511944680E+02  0.000000000E+00  0.00000E+00  9.000E+00
      21    -1     0     0   501   502  0.000000000E+00  0.000000000E+00 -2.414973242E+02  2.414973242E+02  0.000000000E+00  0.00000E+00  9.000E+00
      25     1     1     2     0     0 -3.274763427E+01  1.258688541E+02 -1.434849822E+02  2.304958050E+02  1.250000000E+02  0.00000E+00  9.000E+00
      25     1     1     2     0     0 -6.747661397E+00 -9.881841007E+01  9.066201366E+01  1.834535631E+02  1.250000000E+02  0.00000E+00  9.000E+00
      21     1     1     2   501   512  3.949529567E+01 -2.705044404E+01  6.252011240E+01  7.874242412E+01  0.000000000E+00  0.00000E+00  9.000E+00
#rwgt            1           1   3.1948518301620175E-002           5       53772           0
</event>
<event>
      5   9999  3.79277E-02  3.82016E+01 -1.00000E+00  1.46090E-01
      21    -1     0     0   502   501  0.000000000E+00  0.000000000E+00  1.033055046E+02  1.033055046E+02  0.000000000E+00  0.00000E+00  9.000E+00
      21    -1     0     0   511   502  0.000000000E+00  0.000000000E+00 -5.743718892E+02  5.743718892E+02  0.000000000E+00  0.00000E+00  9.000E+00
      25     1     1     2     0     0 -1.215425738E+02  1.013227406E+02 -1.057537121E+02  2.277009939E+02  1.250000000E+02  0.00000E+00  9.000E+00
      25     1     1     2     0     0  1.226564448E+02 -1.395080812E+02 -3.224115388E+02  3.925319204E+02  1.250000000E+02  0.00000E+00  9.000E+00
      21     1     1     2   511   501 -1.113870951E+00  3.818534058E+01 -4.290113376E+01  5.744447947E+01  0.000000000E+00  0.00000E+00  9.000E+00
#rwgt            1           1   4.1005838882679509E-002           5       53895           0
</event>
<event>
      5   9999  3.79277E-02  2.12143E+01 -1.00000E+00  1.64284E-01
      21    -1     0     0   502   501  0.000000000E+00  0.000000000E+00  1.041044720E+02  1.041044720E+02  0.000000000E+00  0.00000E+00  9.000E+00
      21    -1     0     0   512   502  0.000000000E+00  0.000000000E+00 -1.451528475E+03  1.451528475E+03  0.000000000E+00  0.00000E+00  9.000E+00
      25     1     1     2     0     0 -4.771593787E+01  1.398626260E+02 -1.024764156E+02  2.190086314E+02  1.250000000E+02  0.00000E+00  9.000E+00
      25     1     1     2     0     0  5.044093512E+01 -1.609011936E+02 -1.951244888E+02  2.865868946E+02  1.250000000E+02  0.00000E+00  9.000E+00
      21     1     1     2   512   501 -2.724997250E+00  2.103856760E+01 -1.049823098E+03  1.050037421E+03  2.157918644E-05  0.00000E+00  9.000E+00
#rwgt            1           1   3.7708395215041456E-002           5       54114           0
</event>
<event>
      5   9999  3.79277E-02  1.62584E+02 -1.00000E+00  1.15024E-01
      21    -1     0     0   502   501  0.000000000E+00  0.000000000E+00  4.452806309E+02  4.452806309E+02  0.000000000E+00  0.00000E+00  9.000E+00
      21    -1     0     0   501   511  0.000000000E+00  0.000000000E+00 -3.150602855E+02  3.150602855E+02  0.000000000E+00  0.00000E+00  9.000E+00
      25     1     1     2     0     0 -7.194656131E-01 -1.629020108E+02  1.034205257E+02  2.299095211E+02  1.250000000E+02  0.00000E+00  9.000E+00
      25     1     1     2     0     0  1.254128543E+02  5.856951448E+01  2.130837273E+02  2.831756467E+02  1.250000000E+02  0.00000E+00  9.000E+00
      21     1     1     2   502   511 -1.246933887E+02  1.043324964E+02 -1.862839076E+02  2.472557486E+02  2.697398305E-06  0.00000E+00  9.000E+00
#rwgt            1           1   2.1276624268748198E-002           5       54260           0
</event>
<event>
      5   9999  3.79277E-02  1.05330E+02 -1.00000E+00  1.22822E-01
      21    -1     0     0   502   512  0.000000000E+00  0.000000000E+00  1.626502453E+02  1.626502453E+02  0.000000000E+00  0.00000E+00  9.000E+00
      21    -1     0     0   501   502  0.000000000E+00  0.000000000E+00 -3.376874070E+02  3.376874070E+02  0.000000000E+00  0.00000E+00  9.000E+00
      25     1     1     2     0     0 -1.309206193E+01 -9.390438625E+01 -1.405595043E+02  2.106452233E+02  1.250000000E+02  0.00000E+00  9.000E+00
      25     1     1     2     0     0 -9.103962040E+01  7.805935683E+01 -5.626491458E+01  1.821324141E+02  1.250000000E+02  0.00000E+00  9.000E+00
      21     1     1     2   501   512  1.041316823E+02  1.584502942E+01  2.178725718E+01  1.075600149E+02  3.438521648E-06  0.00000E+00  9.000E+00
#rwgt            1           1   3.9119045393523635E-002           5       54395           0
</event>
<event>
      5   9999  3.79277E-02  1.31207E+02 -1.00000E+00  1.18745E-01
       2    -1     0     0   502     0  0.000000000E+00  0.000000000E+00  2.027642537E+03  2.027642537E+03  0.000000000E+00  0.00000E+00  9.000E+00
      21    -1     0     0   501   502  0.000000000E+00  0.000000000E+00 -8.965051404E+01  8.965051404E+01  0.000000000E+00  0.00000E+00  9.000E+00
      25     1     1     2     0     0  9.598075104E+01  8.401271064E+01  2.025235622E+02  2.700208017E+02  1.250000000E+02  0.00000E+00  9.000E+00
      25     1     1     2     0     0 -7.364104899E+01  4.527803336E+01  5.490409214E+01  1.615938233E+02  1.250000000E+02  0.00000E+00  9.000E+00
       2     1     1     2   501     0 -2.233970205E+01 -1.292907440E+02  1.680564368E+03  1.685678426E+03  2.157918644E-05  0.00000E+00  9.000E+00
#rwgt            1           1   4.8276656055683431E-002           5       54481           0
</event>
<event>
      5   9999  3.79277E-02  5.99324E+01 -1.00000E+00  1.34730E-01
      21    -1     0     0   502   501  0.000000000E+00  0.000000000E+00  2.144983750E+02  2.144983750E+02  0.000000000E+00  0.00000E+00  9.000E+00
      21    -1     0     0   511   502  0.000000000E+00  0.000000000E+00 -2.827353914E+02  2.827353914E+02  0.000000000E+00  0.00000E+00  9.000E+00
      25     1     1     2     0     0  8.003382887E+01  1.295649221E+02  4.297267183E+01  2.016534982E+02  1.250000000E+02  0.00000E+00  9.000E+00
      25     1     1     2     0     0 -4.871978814E+01 -7.846379512E+01  1.472146344E+01  1.561150422E+02  1.250000000E+02  0.00000E+00  9.000E+00
      21     1     1     2   511   501 -3.131404073E+01 -5.110112697E+01 -1.259311517E+02  1.394652261E+02  0.000000000E+00  0.00000E+00  9.000E+00
#rwgt            1           1   3.1126820216561740E-002           5       54596           0
</event>
<event>
      5   9999  3.79277E-02  1.07734E+01 -1.00000E+00  1.92090E-01
      21    -1     0     0   502   512  0.000000000E+00  0.000000000E+00  3.839162890E+02  3.839162890E+02  0.000000000E+00  0.00000E+00  9.000E+00
      21    -1     0     0   501   502  0.000000000E+00  0.000000000E+00 -2.040572219E+02  2.040572219E+02  0.000000000E+00  0.00000E+00  9.000E+00
      25     1     1     2     0     0  2.395920224E+02  2.453425585E+01  8.182899304E+01  2.834206256E+02  1.250000000E+02  0.00000E+00  9.000E+00
      25     1     1     2     0     0 -2.380132735E+02 -1.387712942E+01  7.550978445E+01  2.795883056E+02  1.250000000E+02  0.00000E+00  9.000E+00
      21     1     1     2   501   512 -1.578748934E+00 -1.065712643E+01  2.252028960E+01  2.496457962E+01  0.000000000E+00  0.00000E+00  9.000E+00
#rwgt            1           1   3.5075505223281678E-002           5       54711           0
</event>
<event>
      5   9999  3.79277E-02  3.30442E+01 -1.00000E+00  1.50181E-01
      21    -1     0     0   511   501  0.000000000E+00  0.000000000E+00  1.993563981E+02  1.993563981E+02  0.000000000E+00  0.00000E+00  9.000E+00
      21    -1     0     0   501   502  0.000000000E+00  0.000000000E+00 -8.053617091E+02  8.053617091E+02  0.000000000E+00  0.00000E+00  9.000E+00
      25     1     1     2     0     0 -1.625265359E+02 -1.594590946E+02 -2.553105572E+02  3.642122435E+02  1.250000000E+02  0.00000E+00  9.000E+00
      25     1     1     2     0     0  1.877025773E+02  1.380560855E+02 -4.576593037E+02  5.285534774E+02  1.250000000E+02  0.00000E+00  9.000E+00
      21     1     1     2   511   502 -2.517604139E+01  2.140300915E+01  1.069645499E+02  1.119523863E+02  0.000000000E+00  0.00000E+00  9.000E+00
#rwgt            1           1   3.5308293424877145E-002           5       55089           0
</event>
<event>
      5   9999  3.79277E-02  9.88586E+00 -1.00000E+00  1.96335E-01
      21    -1     0     0   502   501  0.000000000E+00  0.000000000E+00  7.443342008E+01  7.443342008E+01  0.000000000E+00  0.00000E+00  9.000E+00
      21    -1     0     0   501   512  0.000000000E+00  0.000000000E+00 -6.692134343E+02  6.692134343E+02  0.000000000E+00  0.00000E+00  9.000E+00
      25     1     1     2     0     0  3.322854201E+01 -1.333642610E+02 -1.057411142E+02  2.137670353E+02  1.250000000E+02  0.00000E+00  9.000E+00
      25     1     1     2     0     0 -3.243268256E+01  1.432180384E+02 -4.494294379E+02  4.890553190E+02  1.250000000E+02  0.00000E+00  9.000E+00
      21     1     1     2   502   512 -7.958594549E-01 -9.853777326E+00 -3.960946216E+01  4.082450015E+01  4.768371582E-07  0.00000E+00  9.000E+00
#rwgt            1           1   4.7786089854185615E-002           5       55233           0
</event>
<event>
      5   9999  3.79277E-02  1.61452E+01 -1.00000E+00  1.74425E-01
      21    -1     0     0   502   511  0.000000000E+00  0.000000000E+00  2.658506377E+02  2.658506377E+02  0.000000000E+00  0.00000E+00  9.000E+00
      21    -1     0     0   501   502  0.000000000E+00  0.000000000E+00 -2.292215781E+02  2.292215781E+02  0.000000000E+00  0.00000E+00  9.000E+00
      25     1     1     2     0     0  1.393735780E+02  2.985031088E+01 -6.928766597E+01  2.018460204E+02  1.250000000E+02  0.00000E+00  9.000E+00
      25     1     1     2     0     0 -1.539856252E+02 -3.671730311E+01  1.651634953E+01  2.023796505E+02  1.250000000E+02  0.00000E+00  9.000E+00
      21     1     1     2   501   511  1.461204721E+01  6.866992227E+00  8.940037599E+01  9.084654497E+01  9.536743164E-07  0.00000E+00  9.000E+00
#rwgt            1           1   2.9470082806941540E-002           5       55711           0
</event>
<event>
      5   9999  3.79277E-02  3.88834E+01 -1.00000E+00  1.45607E-01
      -1    -1     0     0     0   501  0.000000000E+00  0.000000000E+00  2.122026123E+03  2.122026123E+03  0.000000000E+00  0.00000E+00  9.000E+00
      21    -1     0     0   501   502  0.000000000E+00  0.000000000E+00 -9.202626696E+01  9.202626696E+01  0.000000000E+00  0.00000E+00  9.000E+00
      25     1     1     2     0     0  1.365851378E+02  4.716755104E+01  4.454575301E+01  1.961876700E+02  1.250000000E+02  0.00000E+00  9.000E+00
      25     1     1     2     0     0 -1.348486373E+02 -8.322945264E+00  5.151187032E+02  5.470152693E+02  1.250000000E+02  0.00000E+00  9.000E+00
      -1     1     1     2     0   502 -1.736500506E+00 -3.884460577E+01  1.470335399E+03  1.470849450E+03  2.157918644E-05  0.00000E+00  9.000E+00
#rwgt            1           1   3.7473028417733110E-002           5       56044           0
</event>
<event>
      5   9999  3.79277E-02  2.08049E+01 -1.00000E+00  1.64968E-01
      21    -1     0     0   511   501  0.000000000E+00  0.000000000E+00  1.345523483E+02  1.345523483E+02  0.000000000E+00  0.00000E+00  9.000E+00
      21    -1     0     0   501   502  0.000000000E+00  0.000000000E+00 -1.707952750E+03  1.707952750E+03  0.000000000E+00  0.00000E+00  9.000E+00
      25     1     1     2     0     0  8.382622201E+01 -4.127965143E+01 -1.308159335E+03  1.317435650E+03  1.250000000E+02  0.00000E+00  9.000E+00
      25     1     1     2     0     0 -7.889883608E+01  6.149259203E+01 -3.779480213E+02  4.104583682E+02  1.250000000E+02  0.00000E+00  9.000E+00
      21     1     1     2   511   502 -4.927385936E+00 -2.021294060E+01  1.127069548E+02  1.146110804E+02  2.336015456E-06  0.00000E+00  9.000E+00
#rwgt            1           1   3.1611653835398199E-002           5       56155           0
</event>
<event>
      5   9999  3.79277E-02  2.16361E+01 -1.00000E+00  1.63600E-01
      21    -1     0     0   502   501  0.000000000E+00  0.000000000E+00  5.440541751E+02  5.440541751E+02  0.000000000E+00  0.00000E+00  9.000E+00
      21    -1     0     0   501   512  0.000000000E+00  0.000000000E+00 -1.366415954E+02  1.366415954E+02  0.000000000E+00  0.00000E+00  9.000E+00
      25     1     1     2     0     0  1.332167254E+02 -2.139575712E+01  4.097037515E+02  4.490953555E+02  1.250000000E+02  0.00000E+00  9.000E+00
      25     1     1     2     0     0 -1.132042740E+02  2.961917390E+01  4.718007583E+01  1.776047935E+02  1.250000000E+02  0.00000E+00  9.000E+00
      21     1     1     2   502   512 -2.001245144E+01 -8.223416786E+00 -4.947124765E+01  5.399562150E+01  6.743495762E-07  0.00000E+00  9.000E+00
#rwgt            1           1   4.5516827607734976E-002           5       56372           0
</event>
<event>
      5   9999  3.79277E-02  1.09597E+02 -1.00000E+00  1.22064E-01
      21    -1     0     0   511   501  0.000000000E+00  0.000000000E+00  7.987789274E+01  7.987789274E+01  0.000000000E+00  0.00000E+00  9.000E+00
      21    -1     0     0   501   502  0.000000000E+00  0.000000000E+00 -1.243109538E+03  1.243109538E+03  0.000000000E+00  0.00000E+00  9.000E+00
      25     1     1     2     0     0 -1.357288366E+02 -3.420764215E+01 -7.532721704E+02  7.762966202E+02  1.250000000E+02  0.00000E+00  9.000E+00
      25     1     1     2     0     0  1.695353999E+02  1.384607781E+02 -2.848322572E+02  3.803525386E+02  1.250000000E+02  0.00000E+00  9.000E+00
      21     1     1     2   511   502 -3.380656332E+01 -1.042531359E+02 -1.251272174E+02  1.663382716E+02  1.907348633E-06  0.00000E+00  9.000E+00
#rwgt            1           1   4.7219153622293390E-002           5       56640           0
</event>
<event>
      5   9999  3.79277E-02  4.15580E+01 -1.00000E+00  1.43818E-01
      -2    -1     0     0     0   501  0.000000000E+00  0.000000000E+00  3.953096395E+02  3.953096395E+02  0.000000000E+00  0.00000E+00  9.000E+00
      21    -1     0     0   501   502  0.000000000E+00  0.000000000E+00 -4.723705395E+02  4.723705395E+02  0.000000000E+00  0.00000E+00  9.000E+00
      25     1     1     2     0     0 -3.051605148E+01 -7.994424288E+01  3.819096216E-01  1.514841814E+02  1.250000000E+02  0.00000E+00  9.000E+00
      25     1     1     2     0     0  6.622250819E+01  5.868124198E+01 -3.805725054E+02  4.102308382E+02  1.250000000E+02  0.00000E+00  9.000E+00
      -2     1     1     2     0   502 -3.570645671E+01  2.126300090E+01  3.031296958E+02  3.059651594E+02  3.814697266E-06  0.00000E+00  9.000E+00
#rwgt            1           1   4.5767602296267418E-002           5       56792           0
</event>
<event>
      5   9999  3.79277E-02  1.11283E+02 -1.00000E+00  1.21775E-01
       1    -1     0     0   502     0  0.000000000E+00  0.000000000E+00  2.553692790E+03  2.553692790E+03  0.000000000E+00  0.00000E+00  9.000E+00
      21    -1     0     0   501   502  0.000000000E+00  0.000000000E+00 -1.729832093E+02  1.729832093E+02  0.000000000E+00  0.00000E+00  9.000E+00
      25     1     1     2     0     0 -3.833112413E+02 -1.201895825E+02  1.897415773E+02  4.615191324E+02  1.250000000E+02  0.00000E+00  9.000E+00
      25     1     1     2     0     0  3.335885193E+02  2.063263141E+01  8.817473696E+02  9.512152383E+02  1.250000000E+02  0.00000E+00  9.000E+00
       1     1     1     2   501     0  4.972272200E+01  9.955695109E+01  1.309220633E+03  1.313941628E+03  1.525878906E-05  0.00000E+00  9.000E+00
#rwgt            1           1  0.14093985356176122                5       56907           0
</event>
<event>
      5   9999  3.79277E-02  6.49046E+00 -1.00000E+00  2.20300E-01
      21    -1     0     0   502   511  0.000000000E+00  0.000000000E+00  1.214921393E+02  1.214921393E+02  0.000000000E+00  0.00000E+00  9.000E+00
      21    -1     0     0   501   502  0.000000000E+00  0.000000000E+00 -3.820868854E+02  3.820868854E+02  0.000000000E+00  0.00000E+00  9.000E+00
      25     1     1     2     0     0 -2.080938535E+01  5.715979488E+01  3.186753091E+01  1.426212193E+02  1.250000000E+02  0.00000E+00  9.000E+00
      25     1     1     2     0     0  2.435646378E+01 -6.259526121E+01 -3.107153224E+02  3.415851514E+02  1.250000000E+02  0.00000E+00  9.000E+00
      21     1     1     2   501   511 -3.547078432E+00  5.435466322E+00  1.825304534E+01  1.937265401E+01  0.000000000E+00  0.00000E+00  9.000E+00
#rwgt            1           1   4.8027892507508732E-002           5       57130           0
</event>
<event>
      5   9999 -3.88373E-02  5.01576E+01 -1.00000E+00  1.38998E-01
      21    -1     0     0   502   501  0.000000000E+00  0.000000000E+00  1.349709035E+02  1.349709035E+02  0.000000000E+00  0.00000E+00  9.000E+00
      21    -1     0     0   512   502  0.000000000E+00  0.000000000E+00 -5.598530421E+02  5.598530421E+02  0.000000000E+00  0.00000E+00  9.000E+00
      25     1     1     2     0     0  1.882271517E+02  1.232934088E+02 -2.956631376E+02  3.920107348E+02  1.250000000E+02  0.00000E+00  9.000E+00
      25     1     1     2     0     0 -1.391857357E+02 -1.127706568E+02 -8.024184414E+01  2.327093544E+02  1.250000000E+02  0.00000E+00  9.000E+00
      21     1     1     2   512   501 -4.904141597E+01 -1.052275200E+01 -4.897715682E+01  7.010385639E+01  6.743495762E-07  0.00000E+00  9.000E+00
#rwgt            1           1 -0.34272199768693135                5       57414           0
</event>
<event>
      5   9999  3.79277E-02  7.26007E+01 -1.00000E+00  1.30423E-01
      21    -1     0     0   502   501  0.000000000E+00  0.000000000E+00  2.726154317E+02  2.726154317E+02  0.000000000E+00  0.00000E+00  9.000E+00
      21    -1     0     0   501   511  0.000000000E+00  0.000000000E+00 -1.927535642E+02  1.927535642E+02  0.000000000E+00  0.00000E+00  9.000E+00
      25     1     1     2     0     0  1.463395966E+01 -5.146056022E+01  1.511336374E+02  2.032946590E+02  1.250000000E+02  0.00000E+00  9.000E+00
      25     1     1     2     0     0 -3.887507066E+00  1.232615141E+02 -7.118089530E+01  1.894735692E+02  1.250000000E+02  0.00000E+00  9.000E+00
      21     1     1     2   502   511 -1.074645260E+01 -7.180095383E+01 -9.087462152E-02  7.260076771E+01  1.536735304E-06  0.00000E+00  9.000E+00
#rwgt            1           1   4.8485417687967616E-002           5       57576           0
</event>
<event>
      5   9999  3.79277E-02  3.27139E+01 -1.00000E+00  1.50473E-01
      21    -1     0     0   502   512  0.000000000E+00  0.000000000E+00  8.927732465E+02  8.927732465E+02  0.000000000E+00  0.00000E+00  9.000E+00
      21    -1     0     0   501   502  0.000000000E+00  0.000000000E+00 -9.846373768E+01  9.846373768E+01  0.000000000E+00  0.00000E+00  9.000E+00
      25     1     1     2     0     0 -1.850904414E+00 -1.805591960E+02  9.231372166E+01  2.382265147E+02  1.250000000E+02  0.00000E+00  9.000E+00
      25     1     1     2     0     0 -2.667647115E+01  1.965713332E+02  6.553868882E+02  6.960667327E+02  1.250000000E+02  0.00000E+00  9.000E+00
      21     1     1     2   501   512  2.852737557E+01 -1.601213725E+01  4.660889896E+01  5.694373678E+01  1.348699152E-06  0.00000E+00  9.000E+00
#rwgt            1           1   1.9513749233533186E-002           5       57682           0
</event>
<event>
      5   9999  3.79277E-02  2.02016E+02 -1.00000E+00  1.11490E-01
      21    -1     0     0   511   501  0.000000000E+00  0.000000000E+00  1.294389456E+03  1.294389456E+03  0.000000000E+00  0.00000E+00  9.000E+00
      21    -1     0     0   501   502  0.000000000E+00  0.000000000E+00 -1.230251323E+03  1.230251323E+03  0.000000000E+00  0.00000E+00  9.000E+00
      25     1     1     2     0     0 -6.409702513E+01  2.203812057E+02 -6.060784408E+02  6.600245305E+02  1.250000000E+02  0.00000E+00  9.000E+00
      25     1     1     2     0     0  2.644194301E+02 -1.942779536E+02 -5.364568527E+02  6.411493688E+02  1.250000000E+02  0.00000E+00  9.000E+00
      21     1     1     2   511   502 -2.003224049E+02 -2.610325207E+01  1.206673426E+03  1.223466879E+03  2.642899792E-05  0.00000E+00  9.000E+00
#rwgt            1           1   4.0005501814292951E-002           5       57864           0
</event>
<event>
      5   9999  3.79277E-02  2.17540E+01 -1.00000E+00  1.63412E-01
      21    -1     0     0   502   501  0.000000000E+00  0.000000000E+00  2.929952385E+02  2.929952385E+02  0.000000000E+00  0.00000E+00  9.000E+00
      21    -1     0     0   512   502  0.000000000E+00  0.000000000E+00 -1.949870578E+02  1.949870578E+02  0.000000000E+00  0.00000E+00  9.000E+00
      25     1     1     2     0     0 -1.649640064E+02 -7.380640747E+01  4.200208549E+01  2.237178678E+02  1.250000000E+02  0.00000E+00  9.000E+00
      25     1     1     2     0     0  1.743419849E+02  5.417757549E+01  7.676311736E+01  2.341963142E+02  1.250000000E+02  0.00000E+00  9.000E+00
      21     1     1     2   512   501 -9.377978504E+00  1.962883198E+01 -2.075702223E+01  3.006811430E+01  3.371747881E-07  0.00000E+00  9.000E+00
#rwgt            1           1   3.7480589122549347E-002           5       57983           0
</event>
<event>
      5   9999  3.79277E-02  4.43065E+01 -1.00000E+00  1.42139E-01
      21    -1     0     0   502   511  0.000000000E+00  0.000000000E+00  2.579332751E+02  2.579332751E+02  0.000000000E+00  0.00000E+00  9.000E+00
      21    -1     0     0   501   502  0.000000000E+00  0.000000000E+00 -6.341094723E+02  6.341094723E+02  0.000000000E+00  0.00000E+00  9.000E+00
      25     1     1     2     0     0 -3.406866492E+01  2.489242401E+01 -5.283893579E+02  5.446105216E+02  1.250000000E+02  0.00000E+00  9.000E+00
      25     1     1     2     0     0  7.819004647E+01 -2.893877336E+01 -3.564178298E+01  1.544230315E+02  1.250000000E+02  0.00000E+00  9.000E+00
      21     1     1     2   501   511 -4.412138155E+01  4.046349356E+00  1.878549436E+02  1.930091943E+02  5.394796609E-06  0.00000E+00  9.000E+00
#rwgt            1           1   4.7815377606608964E-002           5       58153           0
</event>
<event>
      5   9999  3.79277E-02  8.87489E+01 -1.00000E+00  1.26205E-01
       1    -1     0     0   502     0  0.000000000E+00  0.000000000E+00  1.029969460E+03  1.029969460E+03  0.000000000E+00  0.00000E+00  9.000E+00
      21    -1     0     0   501   502  0.000000000E+00  0.000000000E+00 -8.482022788E+01  8.482022788E+01  0.000000000E+00  0.00000E+00  9.000E+00
      25     1     1     2     0     0 -2.038092925E+02  5.171328591E+01  3.655428671E+02  4.398398338E+02  1.250000000E+02  0.00000E+00  9.000E+00
      25     1     1     2     0     0  1.379593122E+02 -1.112124942E+02  2.378905737E+02  3.218973683E+02  1.250000000E+02  0.00000E+00  9.000E+00
       1     1     1     2   501     0  6.584998033E+01  5.949920834E+01  3.417157916E+02  3.530524861E+02  3.814697266E-06  0.00000E+00  9.000E+00
#rwgt            1           1   3.9227569681111338E-002           5       58257           0
</event>
<event>
      5   9999  3.79277E-02  2.03333E+01 -1.00000E+00  1.65779E-01
      21    -1     0     0   502   501  0.000000000E+00  0.000000000E+00  6.508573860E+01  6.508573860E+01  0.000000000E+00  0.00000E+00  9.000E+00
       1    -1     0     0   501     0  0.000000000E+00  0.000000000E+00 -1.670683966E+03  1.670683966E+03  0.000000000E+00  0.00000E+00  9.000E+00
      25     1     1     2     0     0  1.117865249E+02 -1.655391844E+02 -3.325992957E+02  4.076110158E+02  1.250000000E+02  0.00000E+00  9.000E+00
      25     1     1     2     0     0 -9.145343856E+01  1.654531970E+02 -4.402371165E+02  4.951486752E+02  1.250000000E+02  0.00000E+00  9.000E+00
       1     1     1     2   502     0 -2.033308635E+01  8.598736980E-02 -8.327618153E+02  8.330100136E+02  1.525878906E-05  0.00000E+00  9.000E+00
#rwgt            1           1   4.3914993815253385E-002           5       58336           0
</event>
<event>
      5   9999  3.79277E-02  2.66274E+01 -1.00000E+00  1.56726E-01
      21    -1     0     0   511   501  0.000000000E+00  0.000000000E+00  1.482608946E+02  1.482608946E+02  0.000000000E+00  0.00000E+00  9.000E+00
      21    -1     0     0   501   502  0.000000000E+00  0.000000000E+00 -3.949243292E+02  3.949243292E+02  0.000000000E+00  0.00000E+00  9.000E+00
      25     1     1     2     0     0 -9.011551944E+01  1.026107996E+02 -2.055778941E+02  2.766533094E+02  1.250000000E+02  0.00000E+00  9.000E+00
      25     1     1     2     0     0  9.331655119E+01 -7.617652550E+01 -1.010893774E+02  2.008853006E+02  1.250000000E+02  0.00000E+00  9.000E+00
      21     1     1     2   511   502 -3.201031745E+00 -2.643427414E+01  6.000383694E+01  6.564661378E+01  0.000000000E+00  0.00000E+00  9.000E+00
#rwgt            1           1   4.3643926329915254E-002           5       58510           0
</event>
<event>
      5   9999 -3.79277E-02  9.71554E+00 -1.00000E+00  1.97217E-01
      21    -1     0     0   502   501  0.000000000E+00  0.000000000E+00  2.047401275E+02  2.047401275E+02  0.000000000E+00  0.00000E+00  9.000E+00
      21    -1     0     0   501   512  0.000000000E+00  0.000000000E+00 -2.679760857E+02  2.679760857E+02  0.000000000E+00  0.00000E+00  9.000E+00
      25     1     1     2     0     0 -1.546000458E+02  6.525060827E+01  5.292587334E+01  2.158355024E+02  1.250000000E+02  0.00000E+00  9.000E+00
      25     1     1     2     0     0  1.614924085E+02 -7.209801547E+01 -1.012184664E+02  2.390566874E+02  1.250000000E+02  0.00000E+00  9.000E+00
      21     1     1     2   502   512 -6.892362744E+00  6.847407194E+00 -1.494336520E+01  1.782402348E+01  2.920019320E-07  0.00000E+00  9.000E+00
#rwgt            1           1  -1.7562001426190559E-002           5       58642           0
</event>
<event>
      5   9999  3.79277E-02  1.18379E+01 -1.00000E+00  1.87651E-01
      21    -1     0     0   502   501  0.000000000E+00  0.000000000E+00  6.410343804E+01  6.410343804E+01  0.000000000E+00  0.00000E+00  9.000E+00
      21    -1     0     0   501   511  0.000000000E+00  0.000000000E+00 -2.942742400E+03  2.942742400E+03  0.000000000E+00  0.00000E+00  9.000E+00
      25     1     1     2     0     0  9.307097315E+01  2.323696305E+02 -3.921327250E+02  4.817166441E+02  1.250000000E+02  0.00000E+00  9.000E+00
      25     1     1     2     0     0 -8.886429685E+01 -2.213043513E+02 -9.203276050E+02  9.589058242E+02  1.250000000E+02  0.00000E+00  9.000E+00
      21     1     1     2   502   511 -4.206676308E+00 -1.106527925E+01 -1.566178632E+03  1.566223370E+03  0.000000000E+00  0.00000E+00  9.000E+00
#rwgt            1           1   2.3710237123092885E-002           5       58899           0
</event>
<event>
      5   9999  3.79277E-02  7.87206E+00 -1.00000E+00  2.08590E-01
      21    -1     0     0   502   501  0.000000000E+00  0.000000000E+00  4.196248225E+01  4.196248225E+01  0.000000000E+00  0.00000E+00  9.000E+00
      21    -1     0     0   501   512  0.000000000E+00  0.000000000E+00 -1.098052397E+03  1.098052397E+03  0.000000000E+00  0.00000E+00  9.000E+00
      25     1     1     2     0     0  2.415267264E+01 -1.598093093E+02 -3.844798321E+02  4.353987921E+02  1.250000000E+02  0.00000E+00  9.000E+00
      25     1     1     2     0     0 -1.655315240E+01  1.618627514E+02 -6.429886596E+02  6.749318288E+02  1.250000000E+02  0.00000E+00  9.000E+00
      21     1     1     2   502   512 -7.599520232E+00 -2.053442141E+00 -2.862142261E+01  2.968425786E+01  4.768371582E-07  0.00000E+00  9.000E+00
#rwgt            1           1   4.3817910622609771E-002           5       59165           0
</event>
<event>
      5   9999  3.79277E-02  2.84648E+01 -1.00000E+00  1.54641E-01
      21    -1     0     0   502   511  0.000000000E+00  0.000000000E+00  4.329154733E+01  4.329154733E+01  0.000000000E+00  0.00000E+00  9.000E+00
      21    -1     0     0   501   502  0.000000000E+00  0.000000000E+00 -1.016483049E+03  1.016483049E+03  0.000000000E+00  0.00000E+00  9.000E+00
      25     1     1     2     0     0 -1.396544856E+01 -5.536907685E+01 -1.308394109E+02  1.897490971E+02  1.250000000E+02  0.00000E+00  9.000E+00
      25     1     1     2     0     0 -4.298097997E+00  7.720221496E+01 -8.219896454E+02  8.350273246E+02  1.250000000E+02  0.00000E+00  9.000E+00
      21     1     1     2   501   511  1.826354655E+01 -2.183313811E+01 -2.036244567E+01  3.499817490E+01  4.129530925E-07  0.00000E+00  9.000E+00
#rwgt            1           1   5.3754596800601663E-002           5       59508           0
</event>
<event>
      5   9999  3.79277E-02  7.22854E+01 -1.00000E+00  1.30518E-01
      21    -1     0     0   502   501  0.000000000E+00  0.000000000E+00  4.866655167E+02  4.866655167E+02  0.000000000E+00  0.00000E+00  9.000E+00
      21    -1     0     0   501   512  0.000000000E+00  0.000000000E+00 -1.431607630E+02  1.431607630E+02  0.000000000E+00  0.00000E+00  9.000E+00
      25     1     1     2     0     0  1.702328252E+01  1.387365830E+02  1.436570193E+02  2.362201744E+02  1.250000000E+02  0.00000E+00  9.000E+00
      25     1     1     2     0     0 -2.857340908E+01 -2.100932387E+02  2.061338118E+02  3.210479045E+02  1.250000000E+02  0.00000E+00  9.000E+00
      21     1     1     2   502   512  1.155012657E+01  7.135665569E+01 -6.286077397E+00  7.255820081E+01  1.158846742E-06  0.00000E+00  9.000E+00
#rwgt            1           1   2.8950901937875816E-002           5       59625           0
</event>
<event>
      5   9999  3.79277E-02  3.80598E+01 -1.00000E+00  1.46192E-01
      21    -1     0     0   511   501  0.000000000E+00  0.000000000E+00  9.208786449E+01  9.208786449E+01  0.000000000E+00  0.00000E+00  9.000E+00
      21    -1     0     0   501   502  0.000000000E+00  0.000000000E+00 -4.438462913E+02  4.438462913E+02  0.000000000E+00  0.00000E+00  9.000E+00
      25     1     1     2     0     0  1.676833433E+01  1.038001154E+02 -2.871180040E+02  3.303292134E+02  1.250000000E+02  0.00000E+00  9.000E+00
      25     1     1     2     0     0 -4.126506978E+01 -7.467180561E+01 -7.074532405E+01  1.670586287E+02  1.250000000E+02  0.00000E+00  9.000E+00
      21     1     1     2   511   502  2.449673545E+01 -2.912830984E+01  6.104901247E+00  3.854631371E+01  3.264680848E-07  0.00000E+00  9.000E+00
#rwgt            1           1   3.0276733517689780E-002           5       59708           0
</event>
<event>
      5   9999  3.79277E-02  7.40658E+01 -1.00000E+00  1.29991E-01
      21    -1     0     0   502   512  0.000000000E+00  0.000000000E+00  5.530969210E+02  5.530969210E+02  0.000000000E+00  0.00000E+00  9.000E+00
      21    -1     0     0   501   502  0.000000000E+00  0.000000000E+00 -5.114201784E+02  5.114201784E+02  0.000000000E+00  0.00000E+00  9.000E+00
      25     1     1     2     0     0 -1.722645175E+02 -5.623403862E+00 -2.824059467E+02  3.536733032E+02  1.250000000E+02  0.00000E+00  9.000E+00
      25     1     1     2     0     0  1.240536265E+02  6.185026393E+01 -1.447454688E+02  2.362012026E+02  1.250000000E+02  0.00000E+00  9.000E+00
      21     1     1     2   501   512  4.821089100E+01 -5.622686006E+01  4.688281581E+02  4.746425935E+02  5.394796609E-06  0.00000E+00  9.000E+00
#rwgt            1           1   3.0690666372816429E-002           5       59935           0
</event>
<event>
      5   9999  3.79277E-02  1.62130E+01 -1.00000E+00  1.74260E-01
      21    -1     0     0   511   501  0.000000000E+00  0.000000000E+00  2.164958880E+02  2.164958880E+02  0.000000000E+00  0.00000E+00  9.000E+00
      21    -1     0     0   501   502  0.000000000E+00  0.000000000E+00 -4.895161039E+02  4.895161039E+02  0.000000000E+00  0.00000E+00  9.000E+00
      25     1     1     2     0     0 -6.618026244E+00 -1.433734737E+01 -4.517442333E+02  4.689852984E+02  1.250000000E+02  0.00000E+00  9.000E+00
      25     1     1     2     0     0  1.827887053E+01  2.560169402E+01  1.792762642E+02  2.208043087E+02  1.250000000E+02  0.00000E+00  9.000E+00
      21     1     1     2   511   502 -1.166084429E+01 -1.126434665E+01 -5.522467597E-01  1.622238489E+01  3.196811371E-07  0.00000E+00  9.000E+00
#rwgt            1           1   2.1760481584897812E-002           5       60071           0
</event>
<event>
      5   9999  3.79277E-02  1.88918E+02 -1.00000E+00  1.12557E-01
       1    -1     0     0   502     0  0.000000000E+00  0.000000000E+00  1.158522328E+03  1.158522328E+03  0.000000000E+00  0.00000E+00  9.000E+00
      21    -1     0     0   501   502  0.000000000E+00  0.000000000E+00 -1.566895471E+02  1.566895471E+02  0.000000000E+00  0.00000E+00  9.000E+00
      25     1     1     2     0     0 -1.279123457E+02 -1.954330408E+02  3.987963304E+02  4.787683728E+02  1.250000000E+02  0.00000E+00  9.000E+00
      25     1     1     2     0     0 -6.070137477E+01  1.847218235E+02  6.048525926E+02  6.475171563E+02  1.250000000E+02  0.00000E+00  9.000E+00
       1     1     1     2   501     0  1.886137205E+02  1.071121727E+01 -1.816142363E+00  1.889263457E+02  3.734160829E-06  0.00000E+00  9.000E+00
#rwgt            1           1   4.1293216130440707E-002           5       60349           0
</event>
<event>
      5   9999  3.79277E-02  5.24670E+00 -1.00000E+00  2.34919E-01
      21    -1     0     0   511   501  0.000000000E+00  0.000000000E+00  1.286038753E+02  1.286038753E+02  0.000000000E+00  0.00000E+00  9.000E+00
      21    -1     0     0   501   502  0.000000000E+00  0.000000000E+00 -6.505042620E+02  6.505042620E+02  0.000000000E+00  0.00000E+00  9.000E+00
      25     1     1     2     0     0  1.676948052E+02 -5.411754245E+01 -3.185979992E+02  3.849414776E+02  1.250000000E+02  0.00000E+00  9.000E+00
      25     1     1     2     0     0 -1.729243717E+02  5.369391738E+01 -2.580788754E+02  3.391394714E+02  1.250000000E+02  0.00000E+00  9.000E+00
      21     1     1     2   511   502  5.229566510E+00  4.236250653E-01  5.477648792E+01  5.502718831E+01  1.168007728E-06  0.00000E+00  9.000E+00
#rwgt            1           1   4.3304997260768162E-002           5       60405           0
</event>
<event>
      5   9999  3.79277E-02  4.61123E+01 -1.00000E+00  1.41111E-01
      21    -1     0     0   502   501  0.000000000E+00  0.000000000E+00  4.132327497E+02  4.132327497E+02  0.000000000E+00  0.00000E+00  9.000E+00
      21    -1     0     0   501   512  0.000000000E+00  0.000000000E+00 -3.352457233E+02  3.352457233E+02  0.000000000E+00  0.00000E+00  9.000E+00
      25     1     1     2     0     0 -1.802237073E+02  3.465613676E+01  2.979583121E+02  3.715989616E+02  1.250000000E+02  0.00000E+00  9.000E+00
      25     1     1     2     0     0  2.197153086E+02 -1.084943748E+01 -2.119789558E+02  3.300796947E+02  1.250000000E+02  0.00000E+00  9.000E+00
      21     1     1     2   502   512 -3.949160132E+01 -2.380669928E+01 -7.992329855E+00  4.679981669E+01  4.042583694E-07  0.00000E+00  9.000E+00
#rwgt            1           1   3.7392960500370331E-002           5       60768           0
</event>
<event>
      5   9999  3.79277E-02  3.11067E+01 -1.00000E+00  1.51955E-01
      21    -1     0     0   502   501  0.000000000E+00  0.000000000E+00  2.067217401E+02  2.067217401E+02  0.000000000E+00  0.00000E+00  9.000E+00
      21    -1     0     0   501   511  0.000000000E+00  0.000000000E+00 -2.628882147E+02  2.628882147E+02  0.000000000E+00  0.00000E+00  9.000E+00
      25     1     1     2     0     0 -1.432388223E+02  1.109984591E+02 -3.445035646E+01  2.228224522E+02  1.250000000E+02  0.00000E+00  9.000E+00
      25     1     1     2     0     0  1.166381971E+02 -1.271240279E+02 -9.171553675E+00  2.132465823E+02  1.250000000E+02  0.00000E+00  9.000E+00
      21     1     1     2   502   511  2.660062523E+01  1.612556874E+01 -1.254456445E+01  3.354092018E+01  5.057621821E-07  0.00000E+00  9.000E+00
#rwgt            1           1   3.0562176400013758E-002           5       60891           0
</event>
<event>
      5   9999  3.79277E-02  4.77925E+01 -1.00000E+00  1.40204E-01
      21    -1     0     0   512   501  0.000000000E+00  0.000000000E+00  7.592509502E+02  7.592509502E+02  0.000000000E+00  0.00000E+00  9.000E+00
      21    -1     0     0   501   502  0.000000000E+00  0.000000000E+00 -7.276279825E+02  7.276279825E+02  0.000000000E+00  0.00000E+00  9.000E+00
      25     1     1     2     0     0  7.572904849E+01 -4.187868487E+02 -1.305091888E+02  4.623580450E+02  1.250000000E+02  0.00000E+00  9.000E+00
      25     1     1     2     0     0 -1.102729123E+02  3.857589145E+02 -3.273663246E+02  5.326948149E+02  1.250000000E+02  0.00000E+00  9.000E+00
      21     1     1     2   512   502  3.454386380E+01  3.302793411E+01  4.894984811E+02  4.918260728E+02  7.629394531E-06  0.00000E+00  9.000E+00
#rwgt            1           1   2.8054058180361906E-002           5       61073           0
</event>
<event>
      5   9999  3.79277E-02  2.98458E+01 -1.00000E+00  1.53195E-01
      21    -1     0     0   502   501  0.000000000E+00  0.000000000E+00  8.317814679E+02  8.317814679E+02  0.000000000E+00  0.00000E+00  9.000E+00
      21    -1     0     0   501   511  0.000000000E+00  0.000000000E+00 -1.049861167E+02  1.049861167E+02  0.000000000E+00  0.00000E+00  9.000E+00
      25     1     1     2     0     0 -3.851366337E+01  1.258244014E+02  1.064780104E+01  1.818060998E+02  1.250000000E+02  0.00000E+00  9.000E+00
      25     1     1     2     0     0  5.190172585E+01 -9.914979677E+01  7.022942342E+02  7.220572434E+02  1.250000000E+02  0.00000E+00  9.000E+00
      21     1     1     2   502   511 -1.338806248E+01 -2.667460458E+01  1.385331597E+01  3.290424151E+01  7.725644944E-07  0.00000E+00  9.000E+00
#rwgt            1           1   5.0360156605585328E-002           5       61297           0
</event>
<event>
      5   9999 -3.79277E-02  7.48879E+01 -1.00000E+00  1.29753E-01
      21    -1     0     0   502   501  0.000000000E+00  0.000000000E+00  3.935256459E+01  3.935256459E+01  0.000000000E+00  0.00000E+00  9.000E+00
      21    -1     0     0   512   502  0.000000000E+00  0.000000000E+00 -1.847287903E+03  1.847287903E+03  0.000000000E+00  0.00000E+00  9.000E+00
      25     1     1     2     0     0  5.429406232E+01  8.370454610E+01 -1.968689649E+02  2.536467733E+02  1.250000000E+02  0.00000E+00  9.000E+00
      25     1     1     2     0     0 -1.083479466E+02 -3.187431105E+01 -7.505084652E+02  7.691834668E+02  1.250000000E+02  0.00000E+00  9.000E+00
      21     1     1     2   512   501  5.405388431E+01 -5.183023505E+01 -8.605579080E+02  8.638102272E+02  0.000000000E+00  0.00000E+00  9.000E+00
#rwgt            1           1  -8.5361038007224624E-002           5       61492           0
</event>
<event>
      5   9999 -3.79277E-02  1.09264E+02 -1.00000E+00  1.22122E-01
      21    -1     0     0   502   501  0.000000000E+00  0.000000000E+00  2.192274328E+02  2.192274328E+02  0.000000000E+00  0.00000E+00  9.000E+00
      21    -1     0     0   511   502  0.000000000E+00  0.000000000E+00 -6.326277319E+02  6.326277319E+02  0.000000000E+00  0.00000E+00  9.000E+00
      25     1     1     2     0     0  2.626439917E+02  1.531418378E+02 -2.135315192E+02  3.919885184E+02  1.250000000E+02  0.00000E+00  9.000E+00
      25     1     1     2     0     0 -1.653373466E+02 -2.028408888E+02 -8.700943214E+01  3.027812835E+02  1.250000000E+02  0.00000E+00  9.000E+00
      21     1     1     2   511   501 -9.730664504E+01  4.969905097E+01 -1.128593478E+02  1.570853629E+02  0.000000000E+00  0.00000E+00  9.000E+00
#rwgt            1           1  -8.0688174870859539E-002           5       61606           0
</event>
<event>
      5   9999  3.79277E-02  1.09962E+01 -1.00000E+00  1.91107E-01
      21    -1     0     0   512   501  0.000000000E+00  0.000000000E+00  3.515903963E+02  3.515903963E+02  0.000000000E+00  0.00000E+00  9.000E+00
      21    -1     0     0   501   502  0.000000000E+00  0.000000000E+00 -2.758466168E+02  2.758466168E+02  0.000000000E+00  0.00000E+00  9.000E+00
      25     1     1     2     0     0 -1.435103971E+02 -1.043520395E+02  2.464783167E+02  3.284222021E+02  1.250000000E+02  0.00000E+00  9.000E+00
      25     1     1     2     0     0  1.511358156E+02  1.122747345E+02 -1.763604858E+02  2.866629933E+02  1.250000000E+02  0.00000E+00  9.000E+00
      21     1     1     2   512   502 -7.625418516E+00 -7.922694971E+00  5.625948588E+00  1.235181771E+01  1.192092896E-07  0.00000E+00  9.000E+00
#rwgt            1           1   3.4726234620462031E-002           5       61745           0
</event>
<event>
      5   9999 -4.59583E-02  1.01685E+02 -1.00000E+00  1.23502E-01
      21    -1     0     0   502   501  0.000000000E+00  0.000000000E+00  1.951792032E+03  1.951792032E+03  0.000000000E+00  0.00000E+00  9.000E+00
      21    -1     0     0   501   511  0.000000000E+00  0.000000000E+00 -5.131806505E+02  5.131806505E+02  0.000000000E+00  0.00000E+00  9.000E+00
      25     1     1     2     0     0 -2.751163623E+02 -3.369738185E+02  7.366527462E+02  8.645939138E+02  1.250000000E+02  0.00000E+00  9.000E+00
      25     1     1     2     0     0  1.983300922E+02  4.036345262E+02  1.097149202E+03  1.192315825E+03  1.250000000E+02  0.00000E+00  9.000E+00
      21     1     1     2   502   511  7.678627016E+01 -6.666070763E+01 -3.951905670E+02  4.080629430E+02  0.000000000E+00  0.00000E+00  9.000E+00
#rwgt            1           1  -1.0551003731450634                5       62284           0
</event>
<event>
      5   9999  3.79277E-02  1.87100E+01 -1.00000E+00  1.68794E-01
      21    -1     0     0   502   512  0.000000000E+00  0.000000000E+00  1.330847747E+02  1.330847747E+02  0.000000000E+00  0.00000E+00  9.000E+00
      21    -1     0     0   501   502  0.000000000E+00  0.000000000E+00 -5.447092121E+02  5.447092121E+02  0.000000000E+00  0.00000E+00  9.000E+00
      25     1     1     2     0     0 -1.565791934E+02  1.325627951E+02 -2.546018186E+02  3.500528881E+02  1.250000000E+02  0.00000E+00  9.000E+00
      25     1     1     2     0     0  1.381523848E+02 -1.358059022E+02 -1.839553269E+02  2.949472611E+02  1.250000000E+02  0.00000E+00  9.000E+00
      21     1     1     2   501   512  1.842680854E+01  3.243107142E+00  2.693270814E+01  3.279383760E+01  4.768371582E-07  0.00000E+00  9.000E+00
#rwgt            1           1   3.6592018869677105E-002           5       62519           0
</event>
<event>
      5   9999  3.79277E-02  7.68394E+01 -1.00000E+00  1.29203E-01
      21    -1     0     0   511   501  0.000000000E+00  0.000000000E+00  5.474623264E+02  5.474623264E+02  0.000000000E+00  0.00000E+00  9.000E+00
      21    -1     0     0   501   502  0.000000000E+00  0.000000000E+00 -2.613399080E+02  2.613399080E+02  0.000000000E+00  0.00000E+00  9.000E+00
      25     1     1     2     0     0 -1.090578634E+02 -9.289771413E+01  7.088951113E+01  2.029135916E+02  1.250000000E+02  0.00000E+00  9.000E+00
      25     1     1     2     0     0  1.466294078E+02  2.587027487E+01 -1.418338580E+02  2.406476629E+02  1.250000000E+02  0.00000E+00  9.000E+00
      21     1     1     2   511   502 -3.757154442E+01  6.702743925E+01  3.570667653E+02  3.652409799E+02  3.814697266E-06  0.00000E+00  9.000E+00
#rwgt            2          11   1.8229372295642580E-003           5       62684           0
</event>
<event>
      5   9999  3.79277E-02  5.37941E+00 -1.00000E+00  2.33097E-01
      21    -1     0     0   502   512  0.000000000E+00  0.000000000E+00  2.468968843E+01  2.468968843E+01  0.000000000E+00  0.00000E+00  9.000E+00
      21    -1     0     0   501   502  0.000000000E+00  0.000000000E+00 -9.068951889E+02  9.068951889E+02  0.000000000E+00  0.00000E+00  9.000E+00
      25     1     1     2     0     0  7.257267361E+01  2.347228421E+01 -4.296181338E+02  4.538881823E+02  1.250000000E+02  0.00000E+00  9.000E+00
      25     1     1     2     0     0 -6.944545044E+01 -2.784932671E+01 -4.460108194E+02  4.692002841E+02  1.250000000E+02  0.00000E+00  9.000E+00
      21     1     1     2   501   512 -3.127223170E+00  4.377042497E+00 -6.576547264E+00  8.496410989E+00  8.429369702E-08  0.00000E+00  9.000E+00
#rwgt            1           1  0.30971767646148163                5       62749           0
</event>
<event>
      5   9999  3.79277E-02  1.13289E+01 -1.00000E+00  1.89695E-01
      21    -1     0     0   502   501  0.000000000E+00  0.000000000E+00  2.718740487E+02  2.718740487E+02  0.000000000E+00  0.00000E+00  9.000E+00
      21    -1     0     0   501   511  0.000000000E+00  0.000000000E+00 -1.826450998E+02  1.826450998E+02  0.000000000E+00  0.00000E+00  9.000E+00
      25     1     1     2     0     0 -4.185966008E+01  9.329302409E+01  7.650148700E+01  1.786989004E+02  1.250000000E+02  0.00000E+00  9.000E+00
      25     1     1     2     0     0  5.269702059E+01 -9.659387218E+01  9.570535926E+01  1.920725590E+02  1.250000000E+02  0.00000E+00  9.000E+00
      21     1     1     2   502   511 -1.083736050E+01  3.300848089E+00 -8.297789736E+01  8.374768911E+01  9.536743164E-07  0.00000E+00  9.000E+00
#rwgt            1           1   3.5801307073533725E-002           5       62991           0
</event>
<event>
      5   9999  3.79277E-02  1.30103E+02 -1.00000E+00  1.18897E-01
      21    -1     0     0   502   501  0.000000000E+00  0.000000000E+00  6.789082215E+02  6.789082215E+02  0.000000000E+00  0.00000E+00  9.000E+00
       2    -1     0     0   501     0  0.000000000E+00  0.000000000E+00 -5.878245073E+02  5.878245073E+02  0.000000000E+00  0.00000E+00  9.000E+00
      25     1     1     2     0     0  7.456972452E+01 -7.143268083E+01  8.826997528E+01  1.846073136E+02  1.250000000E+02  0.00000E+00  9.000E+00
      25     1     1     2     0     0 -1.294442614E+02 -4.653206561E+01  5.182244031E+02  5.505475292E+02  1.250000000E+02  0.00000E+00  9.000E+00
       2     1     1     2   502     0  5.487453691E+01  1.179647464E+02 -5.154106642E+02  5.315778861E+02  7.629394531E-06  0.00000E+00  9.000E+00
#rwgt            1           1   3.5302867188117648E-002           5       63167           0
</event>
<event>
      5   9999  3.79277E-02  4.80040E+01 -1.00000E+00  1.40093E-01
      21    -1     0     0   502   511  0.000000000E+00  0.000000000E+00  2.585475915E+02  2.585475915E+02  0.000000000E+00  0.00000E+00  9.000E+00
      21    -1     0     0   501   502  0.000000000E+00  0.000000000E+00 -3.451134084E+02  3.451134084E+02  0.000000000E+00  0.00000E+00  9.000E+00
      25     1     1     2     0     0 -2.418863389E+02  6.987023145E+01 -2.295287988E+00  2.811069521E+02  1.250000000E+02  0.00000E+00  9.000E+00
      25     1     1     2     0     0  2.279007767E+02 -2.394865826E+01 -8.506916459E+01  2.745433755E+02  1.250000000E+02  0.00000E+00  9.000E+00
      21     1     1     2   501   511  1.398556216E+01 -4.592157320E+01  7.986355976E-01  4.801067228E+01  4.189585423E-07  0.00000E+00  9.000E+00
#rwgt            1           1   3.2175151142713576E-002           5       63215           0
</event>
<event>
      5   9999  3.79277E-02  1.23809E+01 -1.00000E+00  1.85612E-01
      21    -1     0     0   502   512  0.000000000E+00  0.000000000E+00  6.880836735E+01  6.880836735E+01  0.000000000E+00  0.00000E+00  9.000E+00
      21    -1     0     0   501   502  0.000000000E+00  0.000000000E+00 -6.609682818E+02  6.609682818E+02  0.000000000E+00  0.00000E+00  9.000E+00
      25     1     1     2     0     0  4.200008058E+01 -7.681228804E+01 -4.853565150E+02  5.087829409E+02  1.250000000E+02  0.00000E+00  9.000E+00
      25     1     1     2     0     0 -4.935433815E+01  6.685231823E+01 -1.274562394E+02  1.969141339E+02  1.250000000E+02  0.00000E+00  9.000E+00
      21     1     1     2   501   512  7.354257572E+00  9.959969807E+00  2.065283996E+01  2.407957436E+01  1.168007728E-06  0.00000E+00  9.000E+00
#rwgt            1           1   2.7165727574998078E-002           5       63305           0
</event>
<event>
      5   9999  3.79277E-02  2.14013E+01 -1.00000E+00  1.63978E-01
      21    -1     0     0   502   511  0.000000000E+00  0.000000000E+00  6.827230944E+01  6.827230944E+01  0.000000000E+00  0.00000E+00  9.000E+00
      21    -1     0     0   501   502  0.000000000E+00  0.000000000E+00 -7.071934399E+02  7.071934399E+02  0.000000000E+00  0.00000E+00  9.000E+00
      25     1     1     2     0     0  1.407729773E+02 -3.975303385E+01 -4.858671755E+02  5.225794170E+02  1.250000000E+02  0.00000E+00  9.000E+00
      25     1     1     2     0     0 -1.266011402E+02  2.371630697E+01 -1.314228467E+02  2.224573589E+02  1.250000000E+02  0.00000E+00  9.000E+00
      21     1     1     2   501   511 -1.417183712E+01  1.603672689E+01 -2.163110830E+01  3.042897341E+01  0.000000000E+00  0.00000E+00  9.000E+00
#rwgt            1           1   4.8377010844431564E-002           5       63464           0
</event>
<event>
      5   9999  3.79277E-02  1.58413E+01 -1.00000E+00  1.75180E-01
      21    -1     0     0   502   501  0.000000000E+00  0.000000000E+00  1.759170391E+02  1.759170391E+02  0.000000000E+00  0.00000E+00  9.000E+00
      21    -1     0     0   512   502  0.000000000E+00  0.000000000E+00 -4.507473212E+02  4.507473212E+02  0.000000000E+00  0.00000E+00  9.000E+00
      25     1     1     2     0     0  1.624235812E+02  1.429183843E+02 -3.947878814E+01  2.529637504E+02  1.250000000E+02  0.00000E+00  9.000E+00
      25     1     1     2     0     0 -1.775825449E+02 -1.475174733E+02 -1.856612730E+02  3.215463784E+02  1.250000000E+02  0.00000E+00  9.000E+00
      21     1     1     2   512   501  1.515896369E+01  4.599089002E+00 -4.969022098E+01  5.215423147E+01  9.536743164E-07  0.00000E+00  9.000E+00
#rwgt            1           1   3.8949917568621213E-002           5       63743           0
</event>
<event>
      5   9999  3.79277E-02  3.98451E+01 -1.00000E+00  1.44945E-01
       3    -1     0     0   502     0  0.000000000E+00  0.000000000E+00  2.432304366E+02  2.432304366E+02  0.000000000E+00  0.00000E+00  9.000E+00
      21    -1     0     0   501   502  0.000000000E+00  0.000000000E+00 -3.238416528E+02  3.238416528E+02  0.000000000E+00  0.00000E+00  9.000E+00
      25     1     1     2     0     0 -1.314966409E+02 -3.500169121E+01 -1.506086873E+02  2.383788196E+02  1.250000000E+02  0.00000E+00  9.000E+00
      25     1     1     2     0     0  1.708430788E+02  4.128596701E+01 -3.306412657E+01  2.181974453E+02  1.250000000E+02  0.00000E+00  9.000E+00
       3     1     1     2   501     0 -3.934643796E+01 -6.284275799E+00  1.030615977E+02  1.104958245E+02  1.348699152E-06  0.00000E+00  9.000E+00
#rwgt            1           1   5.1583277943474851E-002           5       63971           0
</event>
<event>
      5   9999  3.79277E-02  9.68669E+01 -1.00000E+00  1.24453E-01
      21    -1     0     0   502   511  0.000000000E+00  0.000000000E+00  2.825329167E+02  2.825329167E+02  0.000000000E+00  0.00000E+00  9.000E+00
      21    -1     0     0   501   502  0.000000000E+00  0.000000000E+00 -3.300454904E+02  3.300454904E+02  0.000000000E+00  0.00000E+00  9.000E+00
      25     1     1     2     0     0 -1.873249152E+01  1.891944970E+02  1.174376658E+02  2.560509115E+02  1.250000000E+02  0.00000E+00  9.000E+00
      25     1     1     2     0     0 -6.352494593E+01 -1.380386950E+02 -1.692871118E+02  2.595635304E+02  1.250000000E+02  0.00000E+00  9.000E+00
      21     1     1     2   501   511  8.225743745E+01 -5.115580196E+01  4.336872297E+00  9.696396522E+01  7.862392639E-07  0.00000E+00  9.000E+00
#rwgt            1           1   3.7795870662818740E-002           5       64158           0
</event>
<event>
      5   9999  3.79277E-02  1.31739E+02 -1.00000E+00  1.18673E-01
      21    -1     0     0   502   501  0.000000000E+00  0.000000000E+00  9.641382379E+02  9.641382379E+02  0.000000000E+00  0.00000E+00  9.000E+00
      21    -1     0     0   501   512  0.000000000E+00  0.000000000E+00 -2.551572169E+02  2.551572169E+02  0.000000000E+00  0.00000E+00  9.000E+00
      25     1     1     2     0     0 -1.508501681E+02  3.108932944E+02  2.706800078E+02  4.564023229E+02  1.250000000E+02  0.00000E+00  9.000E+00
      25     1     1     2     0     0  1.510505625E+02 -1.791543559E+02  5.364610312E+02  5.986050398E+02  1.250000000E+02  0.00000E+00  9.000E+00
      21     1     1     2   502   512 -2.003943277E-01 -1.317389385E+02 -9.816001798E+01  1.642880921E+02  3.303624740E-06  0.00000E+00  9.000E+00
#rwgt            1           1   3.9306977212170684E-002           5       64234           0
</event>
<event>
      5   9999  3.79277E-02  2.04733E+01 -1.00000E+00  1.65535E-01
      -1    -1     0     0     0   501  0.000000000E+00  0.000000000E+00  2.266329280E+02  2.266329280E+02  0.000000000E+00  0.00000E+00  9.000E+00
      21    -1     0     0   501   502  0.000000000E+00  0.000000000E+00 -3.305493283E+02  3.305493283E+02  0.000000000E+00  0.00000E+00  9.000E+00
      25     1     1     2     0     0 -6.401488467E+01  1.586705573E+02 -1.258136475E+02  2.464311772E+02  1.250000000E+02  0.00000E+00  9.000E+00
      25     1     1     2     0     0  7.558802019E+01 -1.417821544E+02 -7.102170639E+01  2.156033647E+02  1.250000000E+02  0.00000E+00  9.000E+00
      -1     1     1     2     0   502 -1.157313552E+01 -1.688840290E+01  9.291895356E+01  9.514771436E+01  1.348699152E-06  0.00000E+00  9.000E+00
#rwgt            1           1   4.4433427568388868E-002           5       64280           0
</event>
<event>
      5   9999  3.79277E-02  1.00945E+02 -1.00000E+00  1.23644E-01
      21    -1     0     0   502   501  0.000000000E+00  0.000000000E+00  1.084574673E+02  1.084574673E+02  0.000000000E+00  0.00000E+00  9.000E+00
      21    -1     0     0   511   502  0.000000000E+00  0.000000000E+00 -6.872340763E+02  6.872340763E+02  0.000000000E+00  0.00000E+00  9.000E+00
      25     1     1     2     0     0  6.395029491E+01 -3.371192803E+00 -6.539074513E+00  1.406014390E+02  1.250000000E+02  0.00000E+00  9.000E+00
      25     1     1     2     0     0 -1.648670708E+02  9.816739577E-01 -4.584821210E+02  5.030039463E+02  1.250000000E+02  0.00000E+00  9.000E+00
      21     1     1     2   511   501  1.009167759E+02  2.389518845E+00 -1.137554135E+02  1.520861583E+02  2.336015456E-06  0.00000E+00  9.000E+00
#rwgt            1           1   2.2821217404926035E-002           5       64415           0
</event>
<event>
      5   9999  3.79277E-02  2.21907E+01 -1.00000E+00  1.62729E-01
      21    -1     0     0   502   501  0.000000000E+00  0.000000000E+00  2.526886513E+02  2.526886513E+02  0.000000000E+00  0.00000E+00  9.000E+00
      21    -1     0     0   512   502  0.000000000E+00  0.000000000E+00 -2.897839241E+02  2.897839241E+02  0.000000000E+00  0.00000E+00  9.000E+00
      25     1     1     2     0     0 -7.257121448E+01  1.464714233E+02  8.946308723E+01  2.243860579E+02  1.250000000E+02  0.00000E+00  9.000E+00
      25     1     1     2     0     0  8.202242173E+01 -1.665488441E+02 -3.827859018E+01  2.270604448E+02  1.250000000E+02  0.00000E+00  9.000E+00
      21     1     1     2   512   501 -9.451207250E+00  2.007742083E+01 -8.827976988E+01  9.102607273E+01  9.536743164E-07  0.00000E+00  9.000E+00
#rwgt            1           1   3.7912031449155149E-002           5       64495           0
</event>
<event>
      5   9999  3.79277E-02  5.72156E+00 -1.00000E+00  2.28725E-01
      21    -1     0     0   502   501  0.000000000E+00  0.000000000E+00  5.563235581E+01  5.563235581E+01  0.000000000E+00  0.00000E+00  9.000E+00
      21    -1     0     0   511   502  0.000000000E+00  0.000000000E+00 -7.717676211E+02  7.717676211E+02  0.000000000E+00  0.00000E+00  9.000E+00
      25     1     1     2     0     0  6.358230511E+01  7.302071407E+01 -9.819993168E+01  1.861261959E+02  1.250000000E+02  0.00000E+00  9.000E+00
      25     1     1     2     0     0 -5.949667338E+01 -7.702618779E+01 -5.304593811E+02  5.536109128E+02  1.250000000E+02  0.00000E+00  9.000E+00
      21     1     1     2   511   501 -4.085631734E+00  4.005473721E+00 -8.747595247E+01  8.766286823E+01  1.907348633E-06  0.00000E+00  9.000E+00
#rwgt            1           1   2.5867423930645266E-002           5       64692           0
</event>
<event>
      5   9999  3.79277E-02  5.89618E+01 -1.00000E+00  1.35110E-01
      21    -1     0     0   502   512  0.000000000E+00  0.000000000E+00  4.758911796E+02  4.758911796E+02  0.000000000E+00  0.00000E+00  9.000E+00
      21    -1     0     0   501   502  0.000000000E+00  0.000000000E+00 -1.161038646E+02  1.161038646E+02  0.000000000E+00  0.00000E+00  9.000E+00
      25     1     1     2     0     0 -1.141010237E+02 -2.756746393E+01  9.205981728E+01  1.946253289E+02  1.250000000E+02  0.00000E+00  9.000E+00
      25     1     1     2     0     0  1.692289079E+02  6.653015439E+00  1.296196496E+02  2.472022238E+02  1.250000000E+02  0.00000E+00  9.000E+00
      21     1     1     2   501   512 -5.512788423E+01  2.091444850E+01  1.381078482E+02  1.501674915E+02  0.000000000E+00  0.00000E+00  9.000E+00
#rwgt            1           1   3.0918198442237692E-002           5       65279           0
</event>
<event>
      5   9999  3.79277E-02  3.15579E+01 -1.00000E+00  1.51528E-01
      21    -1     0     0   502   501  0.000000000E+00  0.000000000E+00  1.103887246E+03  1.103887246E+03  0.000000000E+00  0.00000E+00  9.000E+00
      21    -1     0     0   501   511  0.000000000E+00  0.000000000E+00 -2.423143688E+02  2.423143688E+02  0.000000000E+00  0.00000E+00  9.000E+00
      25     1     1     2     0     0 -7.486407060E+01  9.609840268E+01  7.770220690E+02  7.963842212E+02  1.250000000E+02  0.00000E+00  9.000E+00
      25     1     1     2     0     0  5.739447258E+01 -1.223798193E+02  2.891558110E+02  3.427929823E+02  1.250000000E+02  0.00000E+00  9.000E+00
      21     1     1     2   502   511  1.746959802E+01  2.628141657E+01 -2.046050028E+02  2.070244113E+02  4.672030912E-06  0.00000E+00  9.000E+00
#rwgt            1           1   2.9369770335352600E-002           5       65371           0
</event>
<event>
      5   9999  3.79277E-02  2.15697E+01 -1.00000E+00  1.63706E-01
      21    -1     0     0   502   512  0.000000000E+00  0.000000000E+00  1.111496217E+03  1.111496217E+03  0.000000000E+00  0.00000E+00  9.000E+00
      21    -1     0     0   501   502  0.000000000E+00  0.000000000E+00 -4.350391351E+02  4.350391351E+02  0.000000000E+00  0.00000E+00  9.000E+00
      25     1     1     2     0     0 -9.646677307E+01  4.195505005E+02  8.788824579E+02  9.866041940E+02  1.250000000E+02  0.00000E+00  9.000E+00
      25     1     1     2     0     0  8.581420206E+01 -4.383061070E+02 -2.357240710E+02  5.202568196E+02  1.250000000E+02  0.00000E+00  9.000E+00
      21     1     1     2   501   512  1.065257101E+01  1.875560647E+01  3.329869463E+01  3.967433814E+01  4.768371582E-07  0.00000E+00  9.000E+00
#rwgt            1           1   1.7042248722668567E-002           5       65556           0
</event>
<event>
      5   9999  3.79277E-02  6.20066E+01 -1.00000E+00  1.33944E-01
      21    -1     0     0   502   501  0.000000000E+00  0.000000000E+00  1.715341259E+02  1.715341259E+02  0.000000000E+00  0.00000E+00  9.000E+00
      21    -1     0     0   511   502  0.000000000E+00  0.000000000E+00 -1.655529294E+03  1.655529294E+03  0.000000000E+00  0.00000E+00  9.000E+00
      25     1     1     2     0     0 -5.190697224E+01 -2.407679279E+02 -2.193574993E+01  2.770734668E+02  1.250000000E+02  0.00000E+00  9.000E+00
      25     1     1     2     0     0 -8.685754762E+00  2.539336017E+02 -4.226900355E+02  5.087726236E+02  1.250000000E+02  0.00000E+00  9.000E+00
      21     1     1     2   511   501  6.059272700E+01 -1.316567380E+01 -1.039369383E+03  1.041217330E+03  2.157918644E-05  0.00000E+00  9.000E+00
#rwgt            1           1   8.5049594047626909E-002           5       65824           0
</event>
<event>
      5   9999  3.79277E-02  1.33523E+01 -1.00000E+00  1.82280E-01
      21    -1     0     0   502   512  0.000000000E+00  0.000000000E+00  1.306546018E+02  1.306546018E+02  0.000000000E+00  0.00000E+00  9.000E+00
      21    -1     0     0   501   502  0.000000000E+00  0.000000000E+00 -6.044540088E+02  6.044540088E+02  0.000000000E+00  0.00000E+00  9.000E+00
      25     1     1     2     0     0 -1.609515448E+02 -1.460750636E+02 -3.352081811E+02  4.186082282E+02  1.250000000E+02  0.00000E+00  9.000E+00
      25     1     1     2     0     0  1.720891478E+02  1.387103895E+02 -1.533150106E+02  2.966239023E+02  1.250000000E+02  0.00000E+00  9.000E+00
      21     1     1     2   501   512 -1.113760294E+01  7.364674079E+00  1.472378478E+01  1.987648012E+01  5.591411304E-07  0.00000E+00  9.000E+00
#rwgt            1           1   2.3793718212145386E-002           5       65903           0
</event>
<event>
      5   9999  3.79277E-02  1.09271E+02 -1.00000E+00  1.22121E-01
      21    -1     0     0   511   501  0.000000000E+00  0.000000000E+00  5.975146389E+02  5.975146389E+02  0.000000000E+00  0.00000E+00  9.000E+00
      21    -1     0     0   501   502  0.000000000E+00  0.000000000E+00 -3.234345802E+02  3.234345802E+02  0.000000000E+00  0.00000E+00  9.000E+00
      25     1     1     2     0     0 -1.813083181E+02  1.630230578E+02  1.256791695E+02  3.014456456E+02  1.250000000E+02  0.00000E+00  9.000E+00
      25     1     1     2     0     0  7.744959333E+01 -1.969863460E+02 -1.593363322E+02  2.929421902E+02  1.250000000E+02  0.00000E+00  9.000E+00
      21     1     1     2   511   502  1.038587248E+02  3.396328824E+01  3.077372214E+02  3.265613833E+02  6.607249480E-06  0.00000E+00  9.000E+00
#rwgt            1           1   4.1941605861004046E-002           5       66210           0
</event>
<event>
      5   9999  3.79277E-02  3.09940E+01 -1.00000E+00  1.52063E-01
      -2    -1     0     0     0   501  0.000000000E+00  0.000000000E+00  1.010250203E+02  1.010250203E+02  0.000000000E+00  0.00000E+00  9.000E+00
      21    -1     0     0   501   502  0.000000000E+00  0.000000000E+00 -6.416797166E+02  6.416797166E+02  0.000000000E+00  0.00000E+00  9.000E+00
      25     1     1     2     0     0 -1.208281676E+02  2.574177911E+01 -1.650881997E+02  2.411248617E+02  1.250000000E+02  0.00000E+00  9.000E+00
      25     1     1     2     0     0  1.467264006E+02 -4.276851462E+01 -4.101144613E+02  4.551666221E+02  1.250000000E+02  0.00000E+00  9.000E+00
      -2     1     1     2     0   502 -2.589823301E+01  1.702673551E+01  3.454796468E+01  4.641325305E+01  1.168007728E-06  0.00000E+00  9.000E+00
#rwgt            1           1   4.5605524975249077E-002           5       66299           0
</event>
<event>
      5   9999  3.79277E-02  2.46895E+01 -1.00000E+00  1.59159E-01
      21    -1     0     0   502   501  0.000000000E+00  0.000000000E+00  1.968552672E+02  1.968552672E+02  0.000000000E+00  0.00000E+00  9.000E+00
      21    -1     0     0   501   511  0.000000000E+00  0.000000000E+00 -1.708792331E+02  1.708792331E+02  0.000000000E+00  0.00000E+00  9.000E+00
      25     1     1     2     0     0 -1.116582905E+02  5.801613666E+01  1.808605203E+01  1.782850281E+02  1.250000000E+02  0.00000E+00  9.000E+00
      25     1     1     2     0     0  8.697158512E+01 -5.838579948E+01  1.494406640E+01  1.637720468E+02  1.250000000E+02  0.00000E+00  9.000E+00
      21     1     1     2   502   511  2.468670540E+01  3.696628178E-01 -7.054084344E+00  2.567742550E+01  4.214684851E-07  0.00000E+00  9.000E+00
#rwgt            1           1   4.1744758069351615E-002           5       66455           0
</event>
<event>
      5   9999  3.79277E-02  6.78315E+01 -1.00000E+00  1.31917E-01
      21    -1     0     0   502   501  0.000000000E+00  0.000000000E+00  1.308115399E+03  1.308115399E+03  0.000000000E+00  0.00000E+00  9.000E+00
       2    -1     0     0   501     0  0.000000000E+00  0.000000000E+00 -2.342229636E+03  2.342229636E+03  0.000000000E+00  0.00000E+00  9.000E+00
      25     1     1     2     0     0 -4.246163773E+01 -3.104674675E+02  9.919747618E+02  1.047774769E+03  1.250000000E+02  0.00000E+00  9.000E+00
      25     1     1     2     0     0  9.003609021E+01  2.621168188E+02  2.074090428E+02  3.680424368E+02  1.250000000E+02  0.00000E+00  9.000E+00
       2     1     1     2   502     0 -4.757445249E+01  4.835064875E+01 -2.233498042E+03  2.234527829E+03  0.000000000E+00  0.00000E+00  9.000E+00
#rwgt            1           1   4.1542910980297415E-002           5       66567           0
</event>
<event>
      5   9999  3.79277E-02  5.03568E+01 -1.00000E+00  1.38900E-01
      21    -1     0     0   511   501  0.000000000E+00  0.000000000E+00  4.486375644E+02  4.486375644E+02  0.000000000E+00  0.00000E+00  9.000E+00
      21    -1     0     0   501   502  0.000000000E+00  0.000000000E+00 -1.795063914E+02  1.795063914E+02  0.000000000E+00  0.00000E+00  9.000E+00
      25     1     1     2     0     0  1.911189473E+02 -7.308333800E+01  2.041579685E+02  3.149176121E+02  1.250000000E+02  0.00000E+00  9.000E+00
      25     1     1     2     0     0 -2.181610212E+02  3.060347791E+01  3.807464527E+01  2.561356723E+02  1.250000000E+02  0.00000E+00  9.000E+00
      21     1     1     2   511   502  2.704207384E+01  4.247986009E+01  2.689855921E+01  5.709067138E+01  1.168007728E-06  0.00000E+00  9.000E+00
#rwgt            2          11   3.5145269740110212E-003           5       66757           0
</event>
<event>
      5   9999  3.79277E-02  1.46483E+02 -1.00000E+00  1.16803E-01
      21    -1     0     0   502   501  0.000000000E+00  0.000000000E+00  2.739651967E+03  2.739651967E+03  0.000000000E+00  0.00000E+00  9.000E+00
      21    -1     0     0   501   512  0.000000000E+00  0.000000000E+00 -7.721534486E+01  7.721534486E+01  0.000000000E+00  0.00000E+00  9.000E+00
      25     1     1     2     0     0 -1.201624373E+02  1.175667494E+02  2.370648203E+03  2.379886311E+03  1.250000000E+02  0.00000E+00  9.000E+00
      25     1     1     2     0     0  1.022808690E+02  2.782034977E+01  2.186490526E+02  2.732540141E+02  1.250000000E+02  0.00000E+00  9.000E+00
      21     1     1     2   502   512  1.788156830E+01 -1.453870992E+02  7.313936605E+01  1.637269860E+02  2.697398305E-06  0.00000E+00  9.000E+00
#rwgt            1           1   7.0180138094369335E-002           5       66852           0
</event>
<event>
      5   9999  3.79277E-02  1.09638E+02 -1.00000E+00  1.22057E-01
      21    -1     0     0   511   501  0.000000000E+00  0.000000000E+00  2.498025995E+02  2.498025995E+02  0.000000000E+00  0.00000E+00  9.000E+00
      21    -1     0     0   501   502  0.000000000E+00  0.000000000E+00 -7.058064175E+02  7.058064175E+02  0.000000000E+00  0.00000E+00  9.000E+00
      25     1     1     2     0     0  5.984771394E+01  1.562954584E+02 -5.149525941E+02  5.557078309E+02  1.250000000E+02  0.00000E+00  9.000E+00
      25     1     1     2     0     0  3.358574137E+01 -9.893171974E+01 -1.113725170E+02  1.973431649E+02  1.250000000E+02  0.00000E+00  9.000E+00
      21     1     1     2   511   502 -9.343345531E+01 -5.736373871E+01  1.703212931E+02  2.025580212E+02  4.672030912E-06  0.00000E+00  9.000E+00
#rwgt            1           1   3.7930709715536991E-002           5       66953           0
</event>
<event>
      5   9999  3.79277E-02  5.32502E+00 -1.00000E+00  2.33835E-01
      21    -1     0     0   502   512  0.000000000E+00  0.000000000E+00  1.104032343E+03  1.104032343E+03  0.000000000E+00  0.00000E+00  9.000E+00
      21    -1     0     0   501   502  0.000000000E+00  0.000000000E+00 -3.664547924E+01  3.664547924E+01  0.000000000E+00  0.00000E+00  9.000E+00
      25     1     1     2     0     0  3.947653367E+01 -1.467242960E+02  4.642306015E+02  5.042037952E+02  1.250000000E+02  0.00000E+00  9.000E+00
      25     1     1     2     0     0 -3.476867555E+01  1.492126593E+02  5.826659947E+02  6.153031284E+02  1.250000000E+02  0.00000E+00  9.000E+00
      21     1     1     2   501   512 -4.707858119E+00 -2.488363309E+00  2.049026724E+01  2.117089822E+01  4.129530925E-07  0.00000E+00  9.000E+00
#rwgt            1           1   2.9161778067512471E-002           5       67106           0
</event>
<event>
      5   9999  3.79277E-02  5.15876E+01 -1.00000E+00  1.38305E-01
      21    -1     0     0   502   511  0.000000000E+00  0.000000000E+00  1.517006870E+03  1.517006870E+03  0.000000000E+00  0.00000E+00  9.000E+00
      21    -1     0     0   501   502  0.000000000E+00  0.000000000E+00 -8.345942164E+01  8.345942164E+01  0.000000000E+00  0.00000E+00  9.000E+00
      25     1     1     2     0     0  8.748548705E+01  9.952618642E+00  1.116271130E+03  1.126693836E+03  1.250000000E+02  0.00000E+00  9.000E+00
      25     1     1     2     0     0 -8.000250391E+01  4.108941087E+01  1.694523596E+00  1.540019861E+02  1.250000000E+02  0.00000E+00  9.000E+00
      21     1     1     2   501   511 -7.482983139E+00 -5.104202951E+01  3.155817950E+02  3.197704695E+02  3.814697266E-06  0.00000E+00  9.000E+00
#rwgt            1           1   4.1642599364720104E-002           5       67494           0
</event>
<event>
      5   9999  3.79277E-02  3.91401E+01 -1.00000E+00  1.45428E-01
      21    -1     0     0   502   501  0.000000000E+00  0.000000000E+00  3.722575456E+02  3.722575456E+02  0.000000000E+00  0.00000E+00  9.000E+00
      21    -1     0     0   501   512  0.000000000E+00  0.000000000E+00 -2.048410183E+02  2.048410183E+02  0.000000000E+00  0.00000E+00  9.000E+00
      25     1     1     2     0     0  2.689938829E+01 -2.069589340E+02  9.445267466E+00  2.434538776E+02  1.250000000E+02  0.00000E+00  9.000E+00
      25     1     1     2     0     0  1.008121941E+01  1.941376537E+02  1.760476331E+02  2.905319753E+02  1.250000000E+02  0.00000E+00  9.000E+00
      21     1     1     2   502   512 -3.698060770E+01  1.282128035E+01 -1.807637332E+01  4.311271098E+01  2.384185791E-07  0.00000E+00  9.000E+00
#rwgt            1           1   6.8535896615096015E-002           5       67749           0
</event>
<event>
      5   9999  3.79277E-02  3.32373E+01 -1.00000E+00  1.50012E-01
      21    -1     0     0   502   501  0.000000000E+00  0.000000000E+00  2.530409582E+02  2.530409582E+02  0.000000000E+00  0.00000E+00  9.000E+00
      21    -1     0     0   511   502  0.000000000E+00  0.000000000E+00 -3.083174671E+02  3.083174671E+02  0.000000000E+00  0.00000E+00  9.000E+00
      25     1     1     2     0     0  6.293225063E+01  1.344368410E+01 -1.355661418E+02  1.953058617E+02  1.250000000E+02  0.00000E+00  9.000E+00
      25     1     1     2     0     0 -6.943772920E+01 -4.603815180E+01  1.952688890E+02  2.463656808E+02  1.250000000E+02  0.00000E+00  9.000E+00
      21     1     1     2   511   501  6.505478575E+00  3.259446770E+01 -1.149792561E+02  1.196868828E+02  1.348699152E-06  0.00000E+00  9.000E+00
#rwgt            1           1   4.4595380289530778E-002           5       67945           0
</event>
<event>
      5   9999  3.79277E-02  5.41016E+01 -1.00000E+00  1.37150E-01
      21    -1     0     0   512   501  0.000000000E+00  0.000000000E+00  2.918039738E+02  2.918039738E+02  0.000000000E+00  0.00000E+00  9.000E+00
      21    -1     0     0   501   502  0.000000000E+00  0.000000000E+00 -2.354418091E+02  2.354418091E+02  0.000000000E+00  0.00000E+00  9.000E+00
      25     1     1     2     0     0 -1.271067347E+02 -6.099108121E+00 -1.008912120E+02  2.049325689E+02  1.250000000E+02  0.00000E+00  9.000E+00
      25     1     1     2     0     0  1.706631173E+02 -2.599171734E+01  7.926593992E+01  2.273973575E+02  1.250000000E+02  0.00000E+00  9.000E+00
      21     1     1     2   512   502 -4.355638257E+01  3.209082546E+01  7.798743670E+01  9.491585655E+01  9.536743164E-07  0.00000E+00  9.000E+00
#rwgt            1           1   2.1382142622636085E-002           5       68154           0
</event>
<event>
      5   9999  3.79277E-02  3.65010E+01 -1.00000E+00  1.47350E-01
      21    -1     0     0   502   501  0.000000000E+00  0.000000000E+00  4.832747535E+01  4.832747535E+01  0.000000000E+00  0.00000E+00  9.000E+00
       2    -1     0     0   501     0  0.000000000E+00  0.000000000E+00 -1.034530020E+03  1.034530020E+03  0.000000000E+00  0.00000E+00  9.000E+00
      25     1     1     2     0     0  7.908856039E+01  6.713324869E+01 -2.713542044E+02  3.162593520E+02  1.250000000E+02  0.00000E+00  9.000E+00
      25     1     1     2     0     0 -1.155888767E+02 -6.691023923E+01 -3.088207544E+02  3.589331789E+02  1.250000000E+02  0.00000E+00  9.000E+00
       2     1     1     2   502     0  3.650031633E+01 -2.230094671E-01 -4.060275858E+02  4.076649645E+02  5.394796609E-06  0.00000E+00  9.000E+00
#rwgt            1           1   1.2674779125161602E-002           5       68306           0
</event>
<event>
      5   9999  3.79277E-02  1.55989E+01 -1.00000E+00  1.75797E-01
      21    -1     0     0   511   501  0.000000000E+00  0.000000000E+00  2.963150939E+02  2.963150939E+02  0.000000000E+00  0.00000E+00  9.000E+00
      21    -1     0     0   501   502  0.000000000E+00  0.000000000E+00 -3.931847464E+02  3.931847464E+02  0.000000000E+00  0.00000E+00  9.000E+00
      25     1     1     2     0     0 -1.502586601E+02 -9.219767684E+00 -3.230787533E+02  3.777135818E+02  1.250000000E+02  0.00000E+00  9.000E+00
      25     1     1     2     0     0  1.522564476E+02 -6.250709476E+00  2.189116344E+02  2.945647652E+02  1.250000000E+02  0.00000E+00  9.000E+00
      21     1     1     2   511   502 -1.997787533E+00  1.547047716E+01  7.297466411E+00  1.722149339E+01  2.528810911E-07  0.00000E+00  9.000E+00
#rwgt            1           1   3.5971391184484176E-002           5       68479           0
</event>
<event>
      5   9999  3.79277E-02  2.07521E+01 -1.00000E+00  1.65057E-01
      21    -1     0     0   502   501  0.000000000E+00  0.000000000E+00  1.568153008E+03  1.568153008E+03  0.000000000E+00  0.00000E+00  9.000E+00
      21    -1     0     0   501   512  0.000000000E+00  0.000000000E+00 -7.757220063E+01  7.757220063E+01  0.000000000E+00  0.00000E+00  9.000E+00
      25     1     1     2     0     0 -2.688186802E+02 -5.989466253E+01  5.572474392E+02  6.340351425E+02  1.250000000E+02  0.00000E+00  9.000E+00
      25     1     1     2     0     0  2.509487157E+02  4.934410051E+01  9.456438180E+02  9.875613037E+02  1.250000000E+02  0.00000E+00  9.000E+00
      21     1     1     2   502   512  1.786996455E+01  1.055056202E+01 -1.231044992E+01  2.412876228E+01  8.429369702E-07  0.00000E+00  9.000E+00
#rwgt            1           1   1.7414517687761550E-002           5       68684           0
</event>
<event>
      5   9999  3.79277E-02  1.83225E+01 -1.00000E+00  1.69571E-01
      21    -1     0     0   502   501  0.000000000E+00  0.000000000E+00  5.155845116E+02  5.155845116E+02  0.000000000E+00  0.00000E+00  9.000E+00
      21    -1     0     0   511   502  0.000000000E+00  0.000000000E+00 -4.990085755E+01  4.990085755E+01  0.000000000E+00  0.00000E+00  9.000E+00
      25     1     1     2     0     0  1.531547129E+01  4.005555331E+01  3.648752499E+02  3.880695286E+02  1.250000000E+02  0.00000E+00  9.000E+00
      25     1     1     2     0     0 -4.336997828E+00 -2.538630422E+01  8.666464308E+01  1.542693565E+02  1.250000000E+02  0.00000E+00  9.000E+00
      21     1     1     2   511   501 -1.097847346E+01 -1.466924908E+01  1.414376105E+01  2.314648407E+01  3.769728732E-07  0.00000E+00  9.000E+00
#rwgt            1           1  0.13757541029583201                5       68867           0
</event>
<event>
      5   9999  3.79277E-02  4.21124E+01 -1.00000E+00  1.43468E-01
      21    -1     0     0   512   501  0.000000000E+00  0.000000000E+00  1.722303543E+03  1.722303543E+03  0.000000000E+00  0.00000E+00  9.000E+00
      21    -1     0     0   501   502  0.000000000E+00  0.000000000E+00 -7.880675162E+01  7.880675162E+01  0.000000000E+00  0.00000E+00  9.000E+00
      25     1     1     2     0     0 -8.429677785E+01 -6.341137799E+01  1.176810154E+02  2.014963300E+02  1.250000000E+02  0.00000E+00  9.000E+00
      25     1     1     2     0     0  8.233174073E+01  1.054779498E+02  1.926665317E+02  2.657997477E+02  1.250000000E+02  0.00000E+00  9.000E+00
      21     1     1     2   512   502  1.965037117E+00 -4.206657178E+01  1.333149244E+03  1.333814217E+03  2.157918644E-05  0.00000E+00  9.000E+00
#rwgt            1           1   3.8206834679775856E-002           5       69076           0
</event>
<event>
      5   9999  3.79277E-02  3.54443E+01 -1.00000E+00  1.48174E-01
      21    -1     0     0   511   501  0.000000000E+00  0.000000000E+00  3.495647431E+02  3.495647431E+02  0.000000000E+00  0.00000E+00  9.000E+00
      21    -1     0     0   501   502  0.000000000E+00  0.000000000E+00 -2.009158701E+02  2.009158701E+02  0.000000000E+00  0.00000E+00  9.000E+00
      25     1     1     2     0     0  3.712463667E+01  7.729089134E+01 -1.427917223E+02  2.082464802E+02  1.250000000E+02  0.00000E+00  9.000E+00
      25     1     1     2     0     0 -2.880588208E+00 -6.814533115E+01  2.499371165E+02  2.876554295E+02  1.250000000E+02  0.00000E+00  9.000E+00
      21     1     1     2   511   502 -3.424404846E+01 -9.145560185E+00  4.150347881E+01  5.457870354E+01  4.768371582E-07  0.00000E+00  9.000E+00
#rwgt            1           1   4.8485913040541388E-002           5       69254           0
</event>
<event>
      5   9999  3.79277E-02  2.45374E+01 -1.00000E+00  1.59361E-01
      21    -1     0     0   502   501  0.000000000E+00  0.000000000E+00  3.656788806E+02  3.656788806E+02  0.000000000E+00  0.00000E+00  9.000E+00
      21    -1     0     0   501   512  0.000000000E+00  0.000000000E+00 -7.235785525E+02  7.235785525E+02  0.000000000E+00  0.00000E+00  9.000E+00
      25     1     1     2     0     0  1.053846576E+02 -9.153284073E+01  1.538976193E+02  2.424740486E+02  1.250000000E+02  0.00000E+00  9.000E+00
      25     1     1     2     0     0 -1.207506339E+02  7.240244273E+01  1.142672822E+02  2.202381463E+02  1.250000000E+02  0.00000E+00  9.000E+00
      21     1     1     2   502   512  1.536597628E+01  1.913039800E+01 -6.260645735E+02  6.265452383E+02  0.000000000E+00  0.00000E+00  9.000E+00
#rwgt            1           1   4.1577375144374512E-002           5       69429           0
</event>
<event>
      5   9999  3.79277E-02  8.40306E+01 -1.00000E+00  1.27325E-01
      21    -1     0     0   502   501  0.000000000E+00  0.000000000E+00  1.025555859E+02  1.025555859E+02  0.000000000E+00  0.00000E+00  9.000E+00
       1    -1     0     0   501     0  0.000000000E+00  0.000000000E+00 -1.727677192E+03  1.727677192E+03  0.000000000E+00  0.00000E+00  9.000E+00
      25     1     1     2     0     0  1.507223390E+02  6.735883802E+01 -4.034019869E+01  2.109662726E+02  1.250000000E+02  0.00000E+00  9.000E+00
      25     1     1     2     0     0 -6.754556002E+01 -5.541007554E+01 -3.519010435E+02  3.835257796E+02  1.250000000E+02  0.00000E+00  9.000E+00
       1     1     1     2   502     0 -8.317677898E+01 -1.194876248E+01 -1.232880363E+03  1.235740725E+03  2.157918644E-05  0.00000E+00  9.000E+00
#rwgt            1           1   3.4529217183342779E-002           5       69606           0
</event>
<event>
      5   9999 -3.79277E-02  8.11671E+01 -1.00000E+00  1.28046E-01
      21    -1     0     0   502   501  0.000000000E+00  0.000000000E+00  8.002274651E+01  8.002274651E+01  0.000000000E+00  0.00000E+00  9.000E+00
      21    -1     0     0   511   502  0.000000000E+00  0.000000000E+00 -2.784657045E+03  2.784657045E+03  0.000000000E+00  0.00000E+00  9.000E+00
      25     1     1     2     0     0  4.237915286E+01  2.423070060E+02 -2.580760522E+02  3.778054082E+02  1.250000000E+02  0.00000E+00  9.000E+00
      25     1     1     2     0     0 -1.123215777E+01 -1.673539080E+02 -5.477918992E+02  5.863739905E+02  1.250000000E+02  0.00000E+00  9.000E+00
      21     1     1     2   511   501 -3.114699509E+01 -7.495309794E+01 -1.898766347E+03  1.900500393E+03  0.000000000E+00  0.00000E+00  9.000E+00
#rwgt            1           1 -0.10596283641931374                5       69809           0
</event>
<event>
      5   9999  3.79277E-02  1.85433E+01 -1.00000E+00  1.69125E-01
      21    -1     0     0   512   501  0.000000000E+00  0.000000000E+00  2.974607659E+03  2.974607659E+03  0.000000000E+00  0.00000E+00  9.000E+00
      21    -1     0     0   501   502  0.000000000E+00  0.000000000E+00 -2.526246232E+01  2.526246232E+01  0.000000000E+00  0.00000E+00  9.000E+00
      25     1     1     2     0     0 -9.020835151E+01 -1.380470286E+02  1.756696046E+03  1.768841577E+03  1.250000000E+02  0.00000E+00  9.000E+00
      25     1     1     2     0     0  7.204508317E+01  1.343118797E+02  4.903802360E+02  5.285148540E+02  1.250000000E+02  0.00000E+00  9.000E+00
      21     1     1     2   512   502  1.816326834E+01  3.735148871E+00  7.022689147E+02  7.025136897E+02  1.321449896E-05  0.00000E+00  9.000E+00
#rwgt            1           1   7.9829909376520181E-002           5       69992           0
</event>
<event>
      5   9999  4.12964E-02  6.94669E+00 -1.00000E+00  2.16024E-01
      21    -1     0     0   502   511  0.000000000E+00  0.000000000E+00  1.904560640E+03  1.904560640E+03  0.000000000E+00  0.00000E+00  9.000E+00
      21    -1     0     0   501   502  0.000000000E+00  0.000000000E+00 -1.742123262E+01  1.742123262E+01  0.000000000E+00  0.00000E+00  9.000E+00
      25     1     1     2     0     0 -5.162453700E+01  7.575162805E+01  4.482135215E+02  4.742612812E+02  1.250000000E+02  0.00000E+00  9.000E+00
      25     1     1     2     0     0  4.995564354E+01 -6.900838898E+01  1.402829315E+03  1.410961661E+03  1.250000000E+02  0.00000E+00  9.000E+00
      21     1     1     2   501   511  1.668893457E+00 -6.743239070E+00  3.609657159E+01  3.675893033E+01  6.743495762E-07  0.00000E+00  9.000E+00
#rwgt            1           1  0.21942884185977718                5       70211           0
</event>
<event>
      5   9999  3.79277E-02  6.11565E+01 -1.00000E+00  1.34262E-01
      21    -1     0     0   502   501  0.000000000E+00  0.000000000E+00  4.503465382E+02  4.503465382E+02  0.000000000E+00  0.00000E+00  9.000E+00
      21    -1     0     0   501   512  0.000000000E+00  0.000000000E+00 -1.302548347E+02  1.302548347E+02  0.000000000E+00  0.00000E+00  9.000E+00
      25     1     1     2     0     0  9.074963776E+01  4.851704078E+01  1.066494629E+01  1.622594869E+02  1.250000000E+02  0.00000E+00  9.000E+00
      25     1     1     2     0     0 -9.958732263E+01  1.199753017E+01  3.184660433E+02  3.565209619E+02  1.250000000E+02  0.00000E+00  9.000E+00
      21     1     1     2   502   512  8.837684876E+00 -6.051457095E+01 -9.039286099E+00  6.182092416E+01  1.192092896E-07  0.00000E+00  9.000E+00
#rwgt            1           1   4.4606785177994740E-002           5       70584           0
</event>
<event>
      5   9999  3.79277E-02  3.56188E+01 -1.00000E+00  1.48036E-01
      21    -1     0     0   511   501  0.000000000E+00  0.000000000E+00  3.552261535E+02  3.552261535E+02  0.000000000E+00  0.00000E+00  9.000E+00
      21    -1     0     0   501   502  0.000000000E+00  0.000000000E+00 -4.966819448E+02  4.966819448E+02  0.000000000E+00  0.00000E+00  9.000E+00
      25     1     1     2     0     0 -1.067267357E+02 -1.315930162E+02 -9.249536974E+01  2.299732842E+02  1.250000000E+02  0.00000E+00  9.000E+00
      25     1     1     2     0     0  1.090402282E+02  1.671366051E+02 -2.926679928E+02  3.756380840E+02  1.250000000E+02  0.00000E+00  9.000E+00
      21     1     1     2   511   502 -2.313492514E+00 -3.554358891E+01  2.437075712E+02  2.462967301E+02  2.697398305E-06  0.00000E+00  9.000E+00
#rwgt            1           1   3.9736920288951628E-002           5       70739           0
</event>
<event>
      5   9999  3.79277E-02  1.19945E+02 -1.00000E+00  1.20377E-01
      21    -1     0     0   502   512  0.000000000E+00  0.000000000E+00  1.752979463E+02  1.752979463E+02  0.000000000E+00  0.00000E+00  9.000E+00
      21    -1     0     0   501   502  0.000000000E+00  0.000000000E+00 -1.094478741E+03  1.094478741E+03  0.000000000E+00  0.00000E+00  9.000E+00
      25     1     1     2     0     0 -6.544000805E+00 -1.946257512E+02 -8.991228580E+02  9.284228136E+02  1.250000000E+02  0.00000E+00  9.000E+00
      25     1     1     2     0     0  3.952924043E+01  7.930534339E+01 -1.123604760E+02  1.900046708E+02  1.250000000E+02  0.00000E+00  9.000E+00
      21     1     1     2   501   512 -3.298523963E+01  1.153204078E+02  9.230253929E+01  1.513492030E+02  3.015782986E-06  0.00000E+00  9.000E+00
#rwgt            1           1   3.7724884957117732E-002           5       70965           0
</event>
<event>
      5   9999  3.79277E-02  2.03029E+01 -1.00000E+00  1.65832E-01
      21    -1     0     0   502   501  0.000000000E+00  0.000000000E+00  1.176742851E+02  1.176742851E+02  0.000000000E+00  0.00000E+00  9.000E+00
      21    -1     0     0   511   502  0.000000000E+00  0.000000000E+00 -4.417729260E+02  4.417729260E+02  0.000000000E+00  0.00000E+00  9.000E+00
      25     1     1     2     0     0  1.730446828E+02 -4.806406850E+01 -1.361068173E+02  2.576910605E+02  1.250000000E+02  0.00000E+00  9.000E+00
      25     1     1     2     0     0 -1.536836610E+02  5.417636512E+01 -1.370131883E+02  2.468832922E+02  1.250000000E+02  0.00000E+00  9.000E+00
      21     1     1     2   511   501 -1.936102177E+01 -6.112296621E+00 -5.097863530E+01  5.487285842E+01  6.743495762E-07  0.00000E+00  9.000E+00
#rwgt            1           1   4.2376103821148231E-002           5       71124           0
</event>
<event>
      5   9999  3.79277E-02  8.54309E+01 -1.00000E+00  1.26984E-01
      21    -1     0     0   512   501  0.000000000E+00  0.000000000E+00  1.745572192E+02  1.745572192E+02  0.000000000E+00  0.00000E+00  9.000E+00
      21    -1     0     0   501   502  0.000000000E+00  0.000000000E+00 -9.248703404E+02  9.248703404E+02  0.000000000E+00  0.00000E+00  9.000E+00
      25     1     1     2     0     0  6.194123315E+01  1.186038753E+02 -2.012279230E+01  1.842105382E+02  1.250000000E+02  0.00000E+00  9.000E+00
      25     1     1     2     0     0 -7.491024168E+01 -3.416314385E+01 -7.943800765E+02  8.083584419E+02  1.250000000E+02  0.00000E+00  9.000E+00
      21     1     1     2   512   502  1.296900852E+01 -8.444073145E+01  6.418974759E+01  1.068585795E+02  2.523185073E-06  0.00000E+00  9.000E+00
#rwgt            1           1   4.7659152984930953E-002           5       71368           0
</event>
<event>
      5   9999  3.79277E-02  2.56229E+01 -1.00000E+00  1.57955E-01
      21    -1     0     0   511   501  0.000000000E+00  0.000000000E+00  4.770944444E+01  4.770944444E+01  0.000000000E+00  0.00000E+00  9.000E+00
      21    -1     0     0   501   502  0.000000000E+00  0.000000000E+00 -7.259471488E+02  7.259471488E+02  0.000000000E+00  0.00000E+00  9.000E+00
      25     1     1     2     0     0  8.255742566E+01 -3.263156411E+01 -5.276440006E+02  5.494667769E+02  1.250000000E+02  0.00000E+00  9.000E+00
      25     1     1     2     0     0 -5.991101448E+01  2.064529529E+01 -1.320985741E+02  1.925891772E+02  1.250000000E+02  0.00000E+00  9.000E+00
      21     1     1     2   511   502 -2.264641118E+01  1.198626882E+01 -1.849512964E+01  3.160063923E+01  3.371747881E-07  0.00000E+00  9.000E+00
#rwgt            1           1   4.0166905394498860E-002           5       71434           0
</event>
<event>
      5   9999  3.79277E-02  4.99187E+01 -1.00000E+00  1.39116E-01
      21    -1     0     0   502   501  0.000000000E+00  0.000000000E+00  2.296895003E+02  2.296895003E+02  0.000000000E+00  0.00000E+00  9.000E+00
      21    -1     0     0   512   502  0.000000000E+00  0.000000000E+00 -2.068223637E+02  2.068223637E+02  0.000000000E+00  0.00000E+00  9.000E+00
      25     1     1     2     0     0  1.184949369E+02 -5.560617709E+01  2.963741975E+01  1.834024908E+02  1.250000000E+02  0.00000E+00  9.000E+00
      25     1     1     2     0     0 -1.199660019E+02  1.055032333E+02 -9.400359412E-01  2.028513187E+02  1.250000000E+02  0.00000E+00  9.000E+00
      21     1     1     2   512   501  1.471065039E+00 -4.989705619E+01 -5.830247158E+00  5.025805438E+01  4.129530925E-07  0.00000E+00  9.000E+00
#rwgt            1           1   2.7896908146360252E-002           5       71554           0
</event>
<event>
      5   9999  3.79277E-02  7.44268E+01 -1.00000E+00  1.29886E-01
      21    -1     0     0   502   501  0.000000000E+00  0.000000000E+00  1.457208433E+02  1.457208433E+02  0.000000000E+00  0.00000E+00  9.000E+00
      21    -1     0     0   511   502  0.000000000E+00  0.000000000E+00 -3.404082574E+02  3.404082574E+02  0.000000000E+00  0.00000E+00  9.000E+00
      25     1     1     2     0     0  5.158649086E+01 -1.166232325E+02 -7.183794627E+01  1.924781414E+02  1.250000000E+02  0.00000E+00  9.000E+00
      25     1     1     2     0     0 -8.125635430E+01  4.836605700E+01 -8.187885066E+00  1.569519418E+02  1.250000000E+02  0.00000E+00  9.000E+00
      21     1     1     2   511   501  2.966986344E+01  6.825717547E+01 -1.146615828E+02  1.366990174E+02  1.348699152E-06  0.00000E+00  9.000E+00
#rwgt            1           1   4.6858683899881688E-002           5       71650           0
</event>
<event>
      5   9999  3.79277E-02  6.71229E+00 -1.00000E+00  2.18162E-01
      21    -1     0     0   502   512  0.000000000E+00  0.000000000E+00  1.109228675E+02  1.109228675E+02  0.000000000E+00  0.00000E+00  9.000E+00
      21    -1     0     0   501   502  0.000000000E+00  0.000000000E+00 -1.012117573E+03  1.012117573E+03  0.000000000E+00  0.00000E+00  9.000E+00
      25     1     1     2     0     0 -7.394336927E+01  1.171058523E+02 -3.074085426E+02  3.595920113E+02  1.250000000E+02  0.00000E+00  9.000E+00
      25     1     1     2     0     0  7.980905527E+01 -1.138426431E+02 -6.655806257E+02  6.913408725E+02  1.250000000E+02  0.00000E+00  9.000E+00
      21     1     1     2   501   512 -5.865686007E+00 -3.263209245E+00  7.179446292E+01  7.210755656E+01  1.651812370E-06  0.00000E+00  9.000E+00
#rwgt            1           1   3.1201825907177391E-002           5       71837           0
</event>
<event>
      5   9999  3.79277E-02  1.70213E+01 -1.00000E+00  1.72363E-01
      21    -1     0     0   511   501  0.000000000E+00  0.000000000E+00  1.832889957E+02  1.832889957E+02  0.000000000E+00  0.00000E+00  9.000E+00
      21    -1     0     0   501   502  0.000000000E+00  0.000000000E+00 -4.020704203E+02  4.020704203E+02  0.000000000E+00  0.00000E+00  9.000E+00
      25     1     1     2     0     0 -6.429986759E+01 -1.588447424E+02 -1.478528243E+02  2.585567303E+02  1.250000000E+02  0.00000E+00  9.000E+00
      25     1     1     2     0     0  5.113720666E+01  1.696368538E+02 -1.383865179E+02  2.572304500E+02  1.250000000E+02  0.00000E+00  9.000E+00
      21     1     1     2   511   502  1.316266093E+01 -1.079211146E+01  6.745791768E+01  6.957223562E+01  9.536743164E-07  0.00000E+00  9.000E+00
#rwgt            1           1   4.1298263638413955E-002           5       72351           0
</event>
<event>
      5   9999  3.79277E-02  1.68128E+02 -1.00000E+00  1.14463E-01
      21    -1     0     0   502   512  0.000000000E+00  0.000000000E+00  5.099316149E+02  5.099316149E+02  0.000000000E+00  0.00000E+00  9.000E+00
      21    -1     0     0   501   502  0.000000000E+00  0.000000000E+00 -3.398956451E+02  3.398956451E+02  0.000000000E+00  0.00000E+00  9.000E+00
      25     1     1     2     0     0  2.503507278E+02  6.560499416E+01 -1.944321395E+02  3.469990764E+02  1.250000000E+02  0.00000E+00  9.000E+00
      25     1     1     2     0     0 -1.105286593E+02  2.775807241E+01  1.254166166E+02  2.105740317E+02  1.250000000E+02  0.00000E+00  9.000E+00
      21     1     1     2   501   512 -1.398220685E+02 -9.336306657E+01  2.390514927E+02  2.922541518E+02  4.672030912E-06  0.00000E+00  9.000E+00
#rwgt            1           1   2.4149409209915387E-002           5       72683           0
</event>
<event>
      5   9999  3.79277E-02  8.14937E+01 -1.00000E+00  1.27962E-01
      21    -1     0     0   502   511  0.000000000E+00  0.000000000E+00  2.158079004E+03  2.158079004E+03  0.000000000E+00  0.00000E+00  9.000E+00
      21    -1     0     0   501   502  0.000000000E+00  0.000000000E+00 -1.391285781E+02  1.391285781E+02  0.000000000E+00  0.00000E+00  9.000E+00
      25     1     1     2     0     0 -1.342013745E+01 -5.469204111E+01 -7.584511593E+01  1.566805701E+02  1.250000000E+02  0.00000E+00  9.000E+00
      25     1     1     2     0     0  2.617987208E-01  1.351164677E+02  3.647527731E+02  4.085659235E+02  1.250000000E+02  0.00000E+00  9.000E+00
      21     1     1     2   501   511  1.315833873E+01 -8.042442654E+01  1.730042769E+03  1.731961089E+03  2.157918644E-05  0.00000E+00  9.000E+00
#rwgt            1           1   4.6156578142653996E-002           5       72832           0
</event>
<event>
      5   9999  3.79277E-02  3.28741E+01 -1.00000E+00  1.50330E-01
      21    -1     0     0   502   501  0.000000000E+00  0.000000000E+00  2.913193955E+02  2.913193955E+02  0.000000000E+00  0.00000E+00  9.000E+00
      21    -1     0     0   512   502  0.000000000E+00  0.000000000E+00 -5.599674112E+02  5.599674112E+02  0.000000000E+00  0.00000E+00  9.000E+00
      25     1     1     2     0     0 -2.369495955E+02  1.357123578E+02  1.378058097E+02  3.304215430E+02  1.250000000E+02  0.00000E+00  9.000E+00
      25     1     1     2     0     0  2.391564727E+02 -1.029124515E+02 -3.356437439E+02  4.427962442E+02  1.250000000E+02  0.00000E+00  9.000E+00
      21     1     1     2   512   501 -2.206877222E+00 -3.279990628E+01 -7.081008149E+01  7.806901946E+01  0.000000000E+00  0.00000E+00  9.000E+00
#rwgt            1           1   2.7192613122784193E-002           5       72972           0
</event>
<event>
      5   9999  3.79277E-02  1.04138E+01 -1.00000E+00  1.93743E-01
      21    -1     0     0   502   511  0.000000000E+00  0.000000000E+00  2.293459652E+01  2.293459652E+01  0.000000000E+00  0.00000E+00  9.000E+00
      21    -1     0     0   501   502  0.000000000E+00  0.000000000E+00 -2.742310396E+03  2.742310396E+03  0.000000000E+00  0.00000E+00  9.000E+00
      25     1     1     2     0     0 -3.998991749E+01  1.448854319E+02 -5.676045084E+02  6.003256281E+02  1.250000000E+02  0.00000E+00  9.000E+00
      25     1     1     2     0     0  4.294997996E+01 -1.349012187E+02 -2.142994218E+03  2.151300132E+03  1.250000000E+02  0.00000E+00  9.000E+00
      21     1     1     2   501   511 -2.960062467E+00 -9.984213146E+00 -8.777073475E+00  1.361923275E+01  4.460403188E-07  0.00000E+00  9.000E+00
#rwgt            1           1   3.6355206959745173E-002           5       73111           0
</event>
<event>
      5   9999  3.79277E-02  5.58336E+00 -1.00000E+00  2.30438E-01
      21    -1     0     0   512   501  0.000000000E+00  0.000000000E+00  6.557742276E+02  6.557742276E+02  0.000000000E+00  0.00000E+00  9.000E+00
      21    -1     0     0   501   502  0.000000000E+00  0.000000000E+00 -2.057745139E+02  2.057745139E+02  0.000000000E+00  0.00000E+00  9.000E+00
      25     1     1     2     0     0  2.927542807E+02  1.543978891E+02  2.858777443E+02  4.548569684E+02  1.250000000E+02  0.00000E+00  9.000E+00
      25     1     1     2     0     0 -2.981835665E+02 -1.557004822E+02  1.454737234E+02  3.872256237E+02  1.250000000E+02  0.00000E+00  9.000E+00
      21     1     1     2   512   502  5.429285730E+00  1.302593106E+00  1.864824602E+01  1.946614939E+01  3.371747881E-07  0.00000E+00  9.000E+00
#rwgt            1           1   3.8917727731358188E-002           5       73377           0
</event>
<event>
      5   9999  3.79277E-02  5.44586E+01 -1.00000E+00  1.36991E-01
      21    -1     0     0   502   501  0.000000000E+00  0.000000000E+00  9.742612172E+02  9.742612172E+02  0.000000000E+00  0.00000E+00  9.000E+00
      21    -1     0     0   501   511  0.000000000E+00  0.000000000E+00 -4.171323774E+01  4.171323774E+01  0.000000000E+00  0.00000E+00  9.000E+00
      25     1     1     2     0     0 -3.155804004E+01  8.249878265E+01  4.671570870E+02  4.915920087E+02  1.250000000E+02  0.00000E+00  9.000E+00
      25     1     1     2     0     0  1.542004848E+01 -1.345113429E+02  3.903966933E+02  4.317008888E+02  1.250000000E+02  0.00000E+00  9.000E+00
      21     1     1     2   502   511  1.613799156E+01  5.201256021E+01  7.499419916E+01  9.268155749E+01  2.132480600E-06  0.00000E+00  9.000E+00
#rwgt            1           1  0.13323474049118836                5       74025           0
</event>
<event>
      5   9999  3.79277E-02  1.01679E+01 -1.00000E+00  1.94925E-01
      21    -1     0     0   502   501  0.000000000E+00  0.000000000E+00  1.239385782E+02  1.239385782E+02  0.000000000E+00  0.00000E+00  9.000E+00
      21    -1     0     0   512   502  0.000000000E+00  0.000000000E+00 -6.851946270E+02  6.851946270E+02  0.000000000E+00  0.00000E+00  9.000E+00
      25     1     1     2     0     0  1.257102149E+02  1.187874270E+02 -4.968627109E+02  5.407504641E+02  1.250000000E+02  0.00000E+00  9.000E+00
      25     1     1     2     0     0 -1.272626572E+02 -1.288361156E+02 -1.787844199E+01  2.207694891E+02  1.250000000E+02  0.00000E+00  9.000E+00
      21     1     1     2   512   501  1.552442322E+00  1.004868861E+01 -4.651489595E+01  4.761325199E+01  6.743495762E-07  0.00000E+00  9.000E+00
#rwgt            1           1   4.4365523451375732E-002           5       74147           0
</event>
<event>
      5   9999  3.79277E-02  1.06998E+01 -1.00000E+00  1.92422E-01
      21    -1     0     0   511   501  0.000000000E+00  0.000000000E+00  4.640488326E+02  4.640488326E+02  0.000000000E+00  0.00000E+00  9.000E+00
      21    -1     0     0   501   502  0.000000000E+00  0.000000000E+00 -1.624253795E+02  1.624253795E+02  0.000000000E+00  0.00000E+00  9.000E+00
      25     1     1     2     0     0  1.376799063E+02 -1.599405923E+02  1.451675732E+02  2.850181993E+02  1.250000000E+02  0.00000E+00  9.000E+00
      25     1     1     2     0     0 -1.294919333E+02  1.668284175E+02  7.119467510E+01  2.555260524E+02  1.250000000E+02  0.00000E+00  9.000E+00
      21     1     1     2   511   502 -8.187972913E+00 -6.887825275E+00  8.526120483E+01  8.592996035E+01  1.907348633E-06  0.00000E+00  9.000E+00
#rwgt            1           1   3.4113898550222899E-002           5       74420           0
</event>
<event>
      5   9999  3.79277E-02  1.58388E+01 -1.00000E+00  1.75186E-01
      21    -1     0     0   512   501  0.000000000E+00  0.000000000E+00  9.604975822E+01  9.604975822E+01  0.000000000E+00  0.00000E+00  9.000E+00
      21    -1     0     0   501   502  0.000000000E+00  0.000000000E+00 -5.457292881E+02  5.457292881E+02  0.000000000E+00  0.00000E+00  9.000E+00
      25     1     1     2     0     0  3.952302614E+01 -5.467802482E+01 -4.597011558E+02  4.811464524E+02  1.250000000E+02  0.00000E+00  9.000E+00
      25     1     1     2     0     0 -3.077330466E+01  4.147536449E+01 -9.395722521E+00  1.355746353E+02  1.250000000E+02  0.00000E+00  9.000E+00
      21     1     1     2   512   502 -8.749721476E+00  1.320266032E+01  1.941734849E+01  2.505795857E+01  6.307962682E-07  0.00000E+00  9.000E+00
#rwgt            1           1   1.8956720367521458E-002           5       74883           0
</event>
<event>
      5   9999  3.79277E-02  5.01237E+01 -1.00000E+00  1.39014E-01
      21    -1     0     0   502   501  0.000000000E+00  0.000000000E+00  1.493760962E+03  1.493760962E+03  0.000000000E+00  0.00000E+00  9.000E+00
       1    -1     0     0   501     0  0.000000000E+00  0.000000000E+00 -3.514066845E+02  3.514066845E+02  0.000000000E+00  0.00000E+00  9.000E+00
      25     1     1     2     0     0 -2.050708204E+02  1.312918076E+02  5.194773226E+02  5.871739681E+02  1.250000000E+02  0.00000E+00  9.000E+00
      25     1     1     2     0     0  1.902985058E+02 -1.791892123E+02  9.159408828E+02  9.606742403E+02  1.250000000E+02  0.00000E+00  9.000E+00
       1     1     1     2   502     0  1.477231460E+01  4.789740467E+01 -2.930639277E+02  2.973194383E+02  5.394796609E-06  0.00000E+00  9.000E+00
#rwgt            1           1   7.3531044962141773E-002           5       75108           0
</event>
<event>
      5   9999  3.79277E-02  8.31972E+01 -1.00000E+00  1.27531E-01
      21    -1     0     0   502   501  0.000000000E+00  0.000000000E+00  5.032729982E+02  5.032729982E+02  0.000000000E+00  0.00000E+00  9.000E+00
      21    -1     0     0   511   502  0.000000000E+00  0.000000000E+00 -1.299625364E+02  1.299625364E+02  0.000000000E+00  0.00000E+00  9.000E+00
      25     1     1     2     0     0  9.537270876E+01 -9.469224563E+01  3.211231124E+01  1.863297493E+02  1.250000000E+02  0.00000E+00  9.000E+00
      25     1     1     2     0     0 -3.673904643E+01  3.566801610E+01  3.376103746E+02  3.636313104E+02  1.250000000E+02  0.00000E+00  9.000E+00
      21     1     1     2   511   501 -5.863366233E+01  5.902422953E+01  3.587775953E+00  8.327447488E+01  1.430511475E-06  0.00000E+00  9.000E+00
#rwgt            1           1   2.4177517992820322E-002           5       75356           0
</event>
<event>
      5   9999  3.79277E-02  9.32395E+01 -1.00000E+00  1.25211E-01
      21    -1     0     0   502   512  0.000000000E+00  0.000000000E+00  4.732635268E+02  4.732635268E+02  0.000000000E+00  0.00000E+00  9.000E+00
      21    -1     0     0   501   502  0.000000000E+00  0.000000000E+00 -2.147989860E+02  2.147989860E+02  0.000000000E+00  0.00000E+00  9.000E+00
      25     1     1     2     0     0 -1.114711688E+02  1.341791588E+01  9.285134476E+01  1.919693573E+02  1.250000000E+02  0.00000E+00  9.000E+00
      25     1     1     2     0     0  2.656146302E+01  2.510407102E+01 -1.312703138E+02  1.849124684E+02  1.250000000E+02  0.00000E+00  9.000E+00
      21     1     1     2   501   512  8.490970575E+01 -3.852198690E+01  2.968835098E+02  3.111806871E+02  5.394796609E-06  0.00000E+00  9.000E+00
#rwgt            2          11   1.6072002488518480E-003           5       75464           0
</event>
<event>
      5   9999  3.79277E-02  1.96641E+02 -1.00000E+00  1.11916E-01
      21    -1     0     0   502   501  0.000000000E+00  0.000000000E+00  2.960410279E+02  2.960410279E+02  0.000000000E+00  0.00000E+00  9.000E+00
      21    -1     0     0   511   502  0.000000000E+00  0.000000000E+00 -8.977790651E+02  8.977790651E+02  0.000000000E+00  0.00000E+00  9.000E+00
      25     1     1     2     0     0 -1.407396848E+02 -1.881777568E+02 -3.351113171E+01  2.682657693E+02  1.250000000E+02  0.00000E+00  9.000E+00
      25     1     1     2     0     0  3.321542782E+02  1.431426600E+02 -6.880315919E+01  3.888125003E+02  1.250000000E+02  0.00000E+00  9.000E+00
      21     1     1     2   511   501 -1.914145934E+02  4.503509686E+01 -4.994237464E+02  5.367418234E+02  0.000000000E+00  0.00000E+00  9.000E+00
#rwgt            1           1   2.7002482991115989E-002           5       75484           0
</event>
<event>
      5   9999  3.79277E-02  3.37362E+01 -1.00000E+00  1.49582E-01
      21    -1     0     0   512   501  0.000000000E+00  0.000000000E+00  1.497844878E+03  1.497844878E+03  0.000000000E+00  0.00000E+00  9.000E+00
      21    -1     0     0   501   502  0.000000000E+00  0.000000000E+00 -1.477470794E+02  1.477470794E+02  0.000000000E+00  0.00000E+00  9.000E+00
      25     1     1     2     0     0  1.337862368E+02 -1.809822964E+01 -6.989832936E+01  1.968173761E+02  1.250000000E+02  0.00000E+00  9.000E+00
      25     1     1     2     0     0 -1.043355625E+02  1.642658442E+00  4.562022511E+02  4.843904436E+02  1.250000000E+02  0.00000E+00  9.000E+00
      21     1     1     2   512   502 -2.945067435E+01  1.645557120E+01  9.637938770E+02  9.643841378E+02  1.078959322E-05  0.00000E+00  9.000E+00
#rwgt            1           1   5.1602831266500247E-002           5       75563           0
</event>
<event>
      5   9999  3.79277E-02  3.55417E+01 -1.00000E+00  1.48097E-01
      21    -1     0     0   502   501  0.000000000E+00  0.000000000E+00  1.860927434E+02  1.860927434E+02  0.000000000E+00  0.00000E+00  9.000E+00
      21    -1     0     0   501   511  0.000000000E+00  0.000000000E+00 -2.655910967E+02  2.655910967E+02  0.000000000E+00  0.00000E+00  9.000E+00
      25     1     1     2     0     0  1.702049378E+01 -1.006923296E+02  7.813312387E+01  1.793277098E+02  1.250000000E+02  0.00000E+00  9.000E+00
      25     1     1     2     0     0 -1.779952255E+01  1.362254562E+02 -1.405441286E+02  2.329202653E+02  1.250000000E+02  0.00000E+00  9.000E+00
      21     1     1     2   502   511  7.790287725E-01 -3.553312660E+01 -1.708734865E+01  3.943586510E+01  6.307962682E-07  0.00000E+00  9.000E+00
#rwgt            1           1   4.3139315503341019E-002           5       75789           0
</event>
<event>
      5   9999  3.79277E-02  1.66740E+01 -1.00000E+00  1.73162E-01
      21    -1     0     0   502   501  0.000000000E+00  0.000000000E+00  1.248946538E+03  1.248946538E+03  0.000000000E+00  0.00000E+00  9.000E+00
      21    -1     0     0   512   502  0.000000000E+00  0.000000000E+00 -3.051598163E+01  3.051598163E+01  0.000000000E+00  0.00000E+00  9.000E+00
      25     1     1     2     0     0 -8.579183010E+01  3.590131518E+01  8.525254524E+02  8.666451347E+02  1.250000000E+02  0.00000E+00  9.000E+00
      25     1     1     2     0     0  9.940396847E+01 -4.553106171E+01  3.574012089E+02  3.941000515E+02  1.250000000E+02  0.00000E+00  9.000E+00
      21     1     1     2   512   501 -1.361213837E+01  9.629746538E+00  8.503894760E+00  1.871733302E+01  4.298152060E-07  0.00000E+00  9.000E+00
#rwgt            1           1   4.0901943434240723E-002           5       75924           0
</event>
<event>
      5   9999  3.79277E-02  1.86514E+01 -1.00000E+00  1.68910E-01
      21    -1     0     0   502   501  0.000000000E+00  0.000000000E+00  5.488196481E+02  5.488196481E+02  0.000000000E+00  0.00000E+00  9.000E+00
      21    -1     0     0   501   511  0.000000000E+00  0.000000000E+00 -1.217859397E+02  1.217859397E+02  0.000000000E+00  0.00000E+00  9.000E+00
      25     1     1     2     0     0  1.868799068E+02  6.923763904E+01  1.105567317E+02  2.599341093E+02  1.250000000E+02  0.00000E+00  9.000E+00
      25     1     1     2     0     0 -1.751540081E+02 -5.473319760E+01  3.220795791E+02  3.911967596E+02  1.250000000E+02  0.00000E+00  9.000E+00
      21     1     1     2   502   511 -1.172589876E+01 -1.450444144E+01 -5.602602342E+00  1.947471890E+01  4.805480092E-07  0.00000E+00  9.000E+00
#rwgt            1           1   4.3982586442999752E-002           5       76145           0
</event>
<event>
      5   9999  3.79277E-02  1.68888E+01 -1.00000E+00  1.72665E-01
       1    -1     0     0   502     0  0.000000000E+00  0.000000000E+00  1.889220746E+03  1.889220746E+03  0.000000000E+00  0.00000E+00  9.000E+00
      21    -1     0     0   501   502  0.000000000E+00  0.000000000E+00 -6.117790045E+01  6.117790045E+01  0.000000000E+00  0.00000E+00  9.000E+00
      25     1     1     2     0     0  6.982748730E+01  1.261733510E+02  4.063635879E+02  4.489453842E+02  1.250000000E+02  0.00000E+00  9.000E+00
      25     1     1     2     0     0 -5.318960428E+01 -1.232730802E+02  1.713827427E+02  2.510426872E+02  1.250000000E+02  0.00000E+00  9.000E+00
       1     1     1     2   501     0 -1.663788302E+01 -2.900270838E+00  1.250296515E+03  1.250410575E+03  0.000000000E+00  0.00000E+00  9.000E+00
#rwgt            1           1   3.5295811840564600E-002           5       76483           0
</event>
<event>
      5   9999  3.79277E-02  5.66735E+01 -1.00000E+00  1.36041E-01
      21    -1     0     0   502   501  0.000000000E+00  0.000000000E+00  4.007095574E+02  4.007095574E+02  0.000000000E+00  0.00000E+00  9.000E+00
      21    -1     0     0   501   511  0.000000000E+00  0.000000000E+00 -1.299622071E+02  1.299622071E+02  0.000000000E+00  0.00000E+00  9.000E+00
      25     1     1     2     0     0  8.990806510E+01 -1.989945341E+01 -2.035417520E+01  1.565846125E+02  1.250000000E+02  0.00000E+00  9.000E+00
      25     1     1     2     0     0 -1.061709797E+02 -3.439050993E+01  2.603283107E+02  3.095978254E+02  1.250000000E+02  0.00000E+00  9.000E+00
      21     1     1     2   502   511  1.626291464E+01  5.428996334E+01  3.077321471E+01  6.448932668E+01  6.743495762E-07  0.00000E+00  9.000E+00
#rwgt            1           1   4.4749111097423709E-002           5       76635           0
</event>
<event>
      5   9999 -3.79277E-02  1.03415E+02 -1.00000E+00  1.23176E-01
      21    -1     0     0   502   501  0.000000000E+00  0.000000000E+00  2.898288421E+02  2.898288421E+02  0.000000000E+00  0.00000E+00  9.000E+00
      21    -1     0     0   501   512  0.000000000E+00  0.000000000E+00 -2.423078349E+02  2.423078349E+02  0.000000000E+00  0.00000E+00  9.000E+00
      25     1     1     2     0     0  5.631343306E+01 -7.190133826E+01  7.839685548E+01  1.735283036E+02  1.250000000E+02  0.00000E+00  9.000E+00
      25     1     1     2     0     0 -6.253180064E+01  1.751293712E+02  4.725780512E+01  2.289952465E+02  1.250000000E+02  0.00000E+00  9.000E+00
      21     1     1     2   502   512  6.218367579E+00 -1.032280330E+02 -7.813365344E+01  1.296131270E+02  1.651812370E-06  0.00000E+00  9.000E+00
#rwgt            1           1  -7.7435509685512697E-003           5       76744           0
</event>
<event>
      5   9999 -3.79277E-02  2.18408E+01 -1.00000E+00  1.63275E-01
      21    -1     0     0   502   511  0.000000000E+00  0.000000000E+00  2.260485841E+02  2.260485841E+02  0.000000000E+00  0.00000E+00  9.000E+00
      21    -1     0     0   501   502  0.000000000E+00  0.000000000E+00 -3.512024158E+02  3.512024158E+02  0.000000000E+00  0.00000E+00  9.000E+00
      25     1     1     2     0     0 -1.978444741E+01  1.700955366E+02 -2.228726899E+02  3.076055133E+02  1.250000000E+02  0.00000E+00  9.000E+00
      25     1     1     2     0     0  3.616154978E+00 -1.554119729E+02  3.408507390E+01  2.023678585E+02  1.250000000E+02  0.00000E+00  9.000E+00
      21     1     1     2   501   511  1.616829243E+01 -1.468356363E+01  6.363378439E+01  6.727762805E+01  9.536743164E-07  0.00000E+00  9.000E+00
#rwgt            1           1  -1.6674778374487019E-002           5       76827           0
</event>
<event>
      5   9999  3.79277E-02  3.66076E+01 -1.00000E+00  1.47268E-01
      21    -1     0     0   502   501  0.000000000E+00  0.000000000E+00  1.451263809E+03  1.451263809E+03  0.000000000E+00  0.00000E+00  9.000E+00
      21    -1     0     0   512   502  0.000000000E+00  0.000000000E+00 -6.256725094E+01  6.256725094E+01  0.000000000E+00  0.00000E+00  9.000E+00
      25     1     1     2     0     0 -4.716006029E+01  5.445322705E+01  6.097888551E+01  1.566290193E+02  1.250000000E+02  0.00000E+00  9.000E+00
      25     1     1     2     0     0  8.349602827E+01 -5.890437115E+01  1.303153687E+03  1.313116843E+03  1.250000000E+02  0.00000E+00  9.000E+00
      21     1     1     2   512   501 -3.633596798E+01  4.451144094E+00  2.456398555E+01  4.408519750E+01  5.840038640E-07  0.00000E+00  9.000E+00
#rwgt            1           1   3.9592408639608473E-002           5       77004           0
</event>
<event>
      5   9999  3.79277E-02  2.54244E+01 -1.00000E+00  1.58205E-01
      21    -1     0     0   502   501  0.000000000E+00  0.000000000E+00  3.073420222E+02  3.073420222E+02  0.000000000E+00  0.00000E+00  9.000E+00
      21    -1     0     0   511   502  0.000000000E+00  0.000000000E+00 -4.384989938E+02  4.384989938E+02  0.000000000E+00  0.00000E+00  9.000E+00
      25     1     1     2     0     0 -2.311152236E+02 -2.024545600E+01  1.201819531E+02  2.896425847E+02  1.250000000E+02  0.00000E+00  9.000E+00
      25     1     1     2     0     0  2.254110729E+02 -4.530828437E+00 -6.197455724E+01  2.651349202E+02  1.250000000E+02  0.00000E+00  9.000E+00
      21     1     1     2   511   501  5.704150679E+00  2.477628443E+01 -1.893643674E+02  1.910635110E+02  0.000000000E+00  0.00000E+00  9.000E+00
#rwgt            1           1   4.1083849847870398E-002           5       77207           0
</event>
<event>
      5   9999  3.79277E-02  1.64760E+02 -1.00000E+00  1.14801E-01
      21    -1     0     0   502   501  0.000000000E+00  0.000000000E+00  7.392980130E+02  7.392980130E+02  0.000000000E+00  0.00000E+00  9.000E+00
       2    -1     0     0   501     0  0.000000000E+00  0.000000000E+00 -3.811075351E+02  3.811075351E+02  0.000000000E+00  0.00000E+00  9.000E+00
      25     1     1     2     0     0 -5.830499964E+01 -2.574772434E+02  1.555551059E+02  3.309326137E+02  1.250000000E+02  0.00000E+00  9.000E+00
      25     1     1     2     0     0  1.469048372E+02  1.185676229E+02  4.433228261E+02  4.977945766E+02  1.250000000E+02  0.00000E+00  9.000E+00
       2     1     1     2   502     0 -8.859983753E+01  1.389096205E+02 -2.406874541E+02  2.916783578E+02  2.697398305E-06  0.00000E+00  9.000E+00
#rwgt            1           1   3.6692016567949459E-002           5       77422           0
</event>
<event>
      5   9999  3.79277E-02  8.11862E+01 -1.00000E+00  1.28041E-01
      21    -1     0     0   511   501  0.000000000E+00  0.000000000E+00  1.138584149E+03  1.138584149E+03  0.000000000E+00  0.00000E+00  9.000E+00
      21    -1     0     0   501   502  0.000000000E+00  0.000000000E+00 -4.526357574E+02  4.526357574E+02  0.000000000E+00  0.00000E+00  9.000E+00
      25     1     1     2     0     0  1.017205622E+02  1.661339538E+02 -3.738763629E+02  4.397227514E+02  1.250000000E+02  0.00000E+00  9.000E+00
      25     1     1     2     0     0 -2.553681224E+01 -1.941916418E+02  2.645934220E+02  3.521323636E+02  1.250000000E+02  0.00000E+00  9.000E+00
      21     1     1     2   511   502 -7.618374998E+01  2.805768799E+01  7.952313326E+02  7.993647915E+02  1.078959322E-05  0.00000E+00  9.000E+00
#rwgt            1           1   5.1214137986784300E-002           5       77526           0
</event>
<event>
      5   9999  3.79277E-02  4.17235E+01 -1.00000E+00  1.43713E-01
      21    -1     0     0   512   501  0.000000000E+00  0.000000000E+00  4.541409756E+01  4.541409756E+01  0.000000000E+00  0.00000E+00  9.000E+00
      21    -1     0     0   501   502  0.000000000E+00  0.000000000E+00 -1.927618902E+03  1.927618902E+03  0.000000000E+00  0.00000E+00  9.000E+00
      25     1     1     2     0     0  7.770848296E+01 -5.505581918E+01 -1.262354241E+02  2.015691788E+02  1.250000000E+02  0.00000E+00  9.000E+00
      25     1     1     2     0     0 -1.101921002E+02  2.887058421E+01 -1.630321509E+03  1.639069563E+03  1.250000000E+02  0.00000E+00  9.000E+00
      21     1     1     2   512   502  3.248361728E+01  2.618523497E+01 -1.256478720E+02  1.323942584E+02  2.336015456E-06  0.00000E+00  9.000E+00
#rwgt            1           1   4.4412340275814935E-002           5       77650           0
</event>
<event>
      5   9999  3.79277E-02  1.78762E+02 -1.00000E+00  1.13452E-01
      21    -1     0     0   502   511  0.000000000E+00  0.000000000E+00  8.516188197E+02  8.516188197E+02  0.000000000E+00  0.00000E+00  9.000E+00
      21    -1     0     0   501   502  0.000000000E+00  0.000000000E+00 -4.530051688E+02  4.530051688E+02  0.000000000E+00  0.00000E+00  9.000E+00
      25     1     1     2     0     0  4.743527778E+01 -1.850419442E+02 -3.795575387E+01  2.314222676E+02  1.250000000E+02  0.00000E+00  9.000E+00
      25     1     1     2     0     0  1.313108800E+02  1.826548865E+02 -2.529707939E+02  3.608664259E+02  1.250000000E+02  0.00000E+00  9.000E+00
      21     1     1     2   501   511 -1.787461578E+02  2.387057644E+00  6.895401987E+02  7.123352951E+02  0.000000000E+00  0.00000E+00  9.000E+00
#rwgt            2          11   4.2278458379105118E-003           5       78110           0
</event>
<event>
      5   9999  3.79277E-02  7.99618E+01 -1.00000E+00  1.28360E-01
      21    -1     0     0   502   501  0.000000000E+00  0.000000000E+00  7.033325457E+02  7.033325457E+02  0.000000000E+00  0.00000E+00  9.000E+00
      21    -1     0     0   501   512  0.000000000E+00  0.000000000E+00 -1.405729052E+02  1.405729052E+02  0.000000000E+00  0.00000E+00  9.000E+00
      25     1     1     2     0     0 -6.268893196E+01 -1.970306803E+02  3.595889905E+02  4.332207674E+02  1.250000000E+02  0.00000E+00  9.000E+00
      25     1     1     2     0     0 -3.138216248E+00  2.424253462E+02  1.821725073E+02  3.280117670E+02  1.250000000E+02  0.00000E+00  9.000E+00
      21     1     1     2   502   512  6.582714821E+01 -4.539466585E+01  2.099814264E+01  8.267291650E+01  1.507891493E-06  0.00000E+00  9.000E+00
#rwgt            1           1   3.4510609631097929E-002           5       78160           0
</event>
<event>
      5   9999  3.79277E-02  5.76177E+01 -1.00000E+00  1.35650E-01
      21    -1     0     0   502   501  0.000000000E+00  0.000000000E+00  1.838688360E+02  1.838688360E+02  0.000000000E+00  0.00000E+00  9.000E+00
      21    -1     0     0   501   511  0.000000000E+00  0.000000000E+00 -2.472893584E+02  2.472893584E+02  0.000000000E+00  0.00000E+00  9.000E+00
      25     1     1     2     0     0  4.325927033E+00 -2.560077216E+01  1.120658626E+02  1.698760452E+02  1.250000000E+02  0.00000E+00  9.000E+00
      25     1     1     2     0     0  5.188239519E+01  1.293494803E+01 -1.223718586E+02  1.829179258E+02  1.250000000E+02  0.00000E+00  9.000E+00
      21     1     1     2   502   511 -5.620832222E+01  1.266582413E+01 -5.311452644E+01  7.836422338E+01  1.348699152E-06  0.00000E+00  9.000E+00
#rwgt            1           1   2.7290901224082939E-002           5       78304           0
</event>
<event>
      5   9999  3.79277E-02  4.97454E+01 -1.00000E+00  1.39202E-01
      21    -1     0     0   512   501  0.000000000E+00  0.000000000E+00  3.090424169E+02  3.090424169E+02  0.000000000E+00  0.00000E+00  9.000E+00
      21    -1     0     0   501   502  0.000000000E+00  0.000000000E+00 -6.915864199E+02  6.915864199E+02  0.000000000E+00  0.00000E+00  9.000E+00
      25     1     1     2     0     0 -1.155098015E+02  7.406949072E+01 -4.759845382E+02  5.108963538E+02  1.250000000E+02  0.00000E+00  9.000E+00
      25     1     1     2     0     0  1.212376492E+02 -1.234840497E+02 -1.372165810E+02  2.537720793E+02  1.250000000E+02  0.00000E+00  9.000E+00
      21     1     1     2   512   502 -5.727847630E+00  4.941455903E+01  2.306571162E+02  2.359604037E+02  3.814697266E-06  0.00000E+00  9.000E+00
#rwgt            1           1   3.3773671443870501E-002           5       78420           0
</event>
<event>
      5   9999  3.79277E-02  2.74032E+02 -1.00000E+00  1.06886E-01
      21    -1     0     0   502   501  0.000000000E+00  0.000000000E+00  1.920108803E+02  1.920108803E+02  0.000000000E+00  0.00000E+00  9.000E+00
      -1    -1     0     0     0   502  0.000000000E+00  0.000000000E+00 -1.244797896E+03  1.244797896E+03  0.000000000E+00  0.00000E+00  9.000E+00
      25     1     1     2     0     0 -1.532082055E+02 -3.006699798E+01 -1.597445728E+02  2.559689573E+02  1.250000000E+02  0.00000E+00  9.000E+00
      25     1     1     2     0     0 -8.548433146E+01  1.646746097E+02  2.280107848E+01  2.248781608E+02  1.250000000E+02  0.00000E+00  9.000E+00
      -1     1     1     2     0   501  2.386925369E+02 -1.346076117E+02 -9.158435211E+02  9.559616580E+02  0.000000000E+00  0.00000E+00  9.000E+00
#rwgt            2          10   6.4920911011898266E-005           5       78499           0
</event>
<event>
      5   9999  3.79277E-02  3.05855E+01 -1.00000E+00  1.52459E-01
      21    -1     0     0   502   501  0.000000000E+00  0.000000000E+00  5.007853244E+02  5.007853244E+02  0.000000000E+00  0.00000E+00  9.000E+00
      -1    -1     0     0     0   502  0.000000000E+00  0.000000000E+00 -1.220442874E+02  1.220442874E+02  0.000000000E+00  0.00000E+00  9.000E+00
      25     1     1     2     0     0 -3.139614992E+01 -3.147302671E+01  3.673567356E+02  3.905793656E+02  1.250000000E+02  0.00000E+00  9.000E+00
      25     1     1     2     0     0  1.721435340E+01  4.374090557E+00  8.522360155E+01  1.523270458E+02  1.250000000E+02  0.00000E+00  9.000E+00
      -1     1     1     2     0   501  1.418179652E+01  2.709893615E+01 -7.383930025E+01  7.992320035E+01  2.132480600E-06  0.00000E+00  9.000E+00
#rwgt            1           1   7.8672260526517143E-002           5       78518           0
</event>
<event>
      5   9999  3.79277E-02  1.76415E+02 -1.00000E+00  1.13669E-01
      21    -1     0     0   502   501  0.000000000E+00  0.000000000E+00  4.393760242E+02  4.393760242E+02  0.000000000E+00  0.00000E+00  9.000E+00
      21    -1     0     0   511   502  0.000000000E+00  0.000000000E+00 -9.185773372E+02  9.185773372E+02  0.000000000E+00  0.00000E+00  9.000E+00
      25     1     1     2     0     0 -1.819581148E+02 -1.522621268E+02 -3.688623154E+01  2.706992886E+02  1.250000000E+02  0.00000E+00  9.000E+00
      25     1     1     2     0     0  2.443066347E+02  3.172916641E+02  1.680443388E+02  4.519110883E+02  1.250000000E+02  0.00000E+00  9.000E+00
      21     1     1     2   511   501 -6.234851992E+01 -1.650295373E+02 -6.103594203E+02  6.353429846E+02  7.629394531E-06  0.00000E+00  9.000E+00
#rwgt            1           1   3.2409795267546906E-002           5       78670           0
</event>
<event>
      5   9999  3.79277E-02  8.55471E+00 -1.00000E+00  2.03935E-01
      21    -1     0     0   502   501  0.000000000E+00  0.000000000E+00  6.750077817E+01  6.750077817E+01  0.000000000E+00  0.00000E+00  9.000E+00
      21    -1     0     0   512   502  0.000000000E+00  0.000000000E+00 -5.599896742E+02  5.599896742E+02  0.000000000E+00  0.00000E+00  9.000E+00
      25     1     1     2     0     0 -1.269466216E+02 -3.973413884E+01 -3.169720247E+02  3.657738522E+02  1.250000000E+02  0.00000E+00  9.000E+00
      25     1     1     2     0     0  1.251006273E+02  4.808730116E+01 -1.570132292E+02  2.413311203E+02  1.250000000E+02  0.00000E+00  9.000E+00
      21     1     1     2   512   501  1.845994327E+00 -8.353162317E+00 -1.850364220E+01  2.038547989E+01  2.384185791E-07  0.00000E+00  9.000E+00
#rwgt            1           1   3.6405700960884940E-002           5       78714           0
</event>
<event>
      5   9999  3.79277E-02  1.38166E+01 -1.00000E+00  1.80813E-01
      21    -1     0     0   502   511  0.000000000E+00  0.000000000E+00  5.053002548E+01  5.053002548E+01  0.000000000E+00  0.00000E+00  9.000E+00
      21    -1     0     0   501   502  0.000000000E+00  0.000000000E+00 -1.998874603E+03  1.998874603E+03  0.000000000E+00  0.00000E+00  9.000E+00
      25     1     1     2     0     0  1.430183799E+02 -1.556811065E+02 -5.464308856E+02  5.990847825E+02  1.250000000E+02  0.00000E+00  9.000E+00
      25     1     1     2     0     0 -1.491852184E+02  1.433171283E+02 -1.412426580E+03  1.432958433E+03  1.250000000E+02  0.00000E+00  9.000E+00
      21     1     1     2   501   511  6.166838538E+00  1.236397811E+01  1.051288754E+01  1.736141287E+01  1.180111758E-06  0.00000E+00  9.000E+00
#rwgt            1           1   3.3933839573327934E-002           5       79212           0
</event>
<event>
      5   9999  3.79277E-02  1.09687E+01 -1.00000E+00  1.91227E-01
      21    -1     0     0   502   501  0.000000000E+00  0.000000000E+00  1.183312706E+02  1.183312706E+02  0.000000000E+00  0.00000E+00  9.000E+00
      21    -1     0     0   512   502  0.000000000E+00  0.000000000E+00 -5.274191519E+02  5.274191519E+02  0.000000000E+00  0.00000E+00  9.000E+00
      25     1     1     2     0     0 -6.673525854E+01 -6.810111787E+01  4.501215574E+01  1.635311932E+02  1.250000000E+02  0.00000E+00  9.000E+00
      25     1     1     2     0     0  5.846203297E+01  6.089925931E+01 -4.130596713E+02  4.397383553E+02  1.250000000E+02  0.00000E+00  9.000E+00
      21     1     1     2   512   501  8.273225569E+00  7.201858556E+00 -4.104036579E+01  4.248087396E+01  4.768371582E-07  0.00000E+00  9.000E+00
#rwgt            1           1   4.2907393537097792E-002           5       79626           0
</event>
<event>
      5   9999  3.79277E-02  1.46378E+01 -1.00000E+00  1.78389E-01
      21    -1     0     0   502   501  0.000000000E+00  0.000000000E+00  1.315927100E+02  1.315927100E+02  0.000000000E+00  0.00000E+00  9.000E+00
      21    -1     0     0   501   511  0.000000000E+00  0.000000000E+00 -4.947482277E+02  4.947482277E+02  0.000000000E+00  0.00000E+00  9.000E+00
      25     1     1     2     0     0  1.591435995E+02 -4.759783257E+01 -3.638951902E+01  2.110484210E+02  1.250000000E+02  0.00000E+00  9.000E+00
      25     1     1     2     0     0 -1.712993072E+02  3.944282138E+01 -2.220736335E+02  3.095817946E+02  1.250000000E+02  0.00000E+00  9.000E+00
      21     1     1     2   502   511  1.215570772E+01  8.155011191E+00 -1.046923652E+02  1.057107221E+02  1.348699152E-06  0.00000E+00  9.000E+00
#rwgt            1           1   4.3604957113915807E-002           5       79832           0
</event>
<event>
      5   9999  3.79277E-02  3.21312E+02 -1.00000E+00  1.04633E-01
      21    -1     0     0   502   501  0.000000000E+00  0.000000000E+00  1.228491759E+03  1.228491759E+03  0.000000000E+00  0.00000E+00  9.000E+00
      21    -1     0     0   512   502  0.000000000E+00  0.000000000E+00 -2.323005420E+02  2.323005420E+02  0.000000000E+00  0.00000E+00  9.000E+00
      25     1     1     2     0     0  6.121555918E+01  1.621208074E+02  5.681543441E+02  6.070048266E+02  1.250000000E+02  0.00000E+00  9.000E+00
      25     1     1     2     0     0 -1.934851145E+02  1.307038957E+02  4.600960922E+02  5.308798470E+02  1.250000000E+02  0.00000E+00  9.000E+00
      21     1     1     2   512   501  1.322695553E+02 -2.928247031E+02 -3.205921954E+01  3.229076270E+02  3.989505894E-06  0.00000E+00  9.000E+00
#rwgt            1           1   4.4873992760497902E-002           5       80090           0
</event>
<event>
      5   9999  3.79277E-02  5.43869E+01 -1.00000E+00  1.37023E-01
       1    -1     0     0   502     0  0.000000000E+00  0.000000000E+00  2.048251934E+03  2.048251934E+03  0.000000000E+00  0.00000E+00  9.000E+00
      21    -1     0     0   501   502  0.000000000E+00  0.000000000E+00 -8.619471343E+01  8.619471343E+01  0.000000000E+00  0.00000E+00  9.000E+00
      25     1     1     2     0     0 -1.232378141E+02 -9.805319398E+01  1.698985098E+02  2.632346697E+02  1.250000000E+02  0.00000E+00  9.000E+00
      25     1     1     2     0     0  1.165001641E+02  4.408527143E+01  1.601706472E+02  2.383179297E+02  1.250000000E+02  0.00000E+00  9.000E+00
       1     1     1     2   501     0  6.737650081E+00  5.396792254E+01  1.631988064E+03  1.632894048E+03  3.051757812E-05  0.00000E+00  9.000E+00
#rwgt            1           1   4.9235676025234230E-002           5       80175           0
</event>
<event>
      5   9999  3.79277E-02  1.55973E+02 -1.00000E+00  1.15726E-01
      21    -1     0     0   502   511  0.000000000E+00  0.000000000E+00  1.148763614E+02  1.148763614E+02  0.000000000E+00  0.00000E+00  9.000E+00
      21    -1     0     0   501   502  0.000000000E+00  0.000000000E+00 -1.015865574E+03  1.015865574E+03  0.000000000E+00  0.00000E+00  9.000E+00
      25     1     1     2     0     0  6.901752931E+01 -1.139918996E+02 -5.120330795E+02  5.436547131E+02  1.250000000E+02  0.00000E+00  9.000E+00
      25     1     1     2     0     0 -2.248976806E+02  1.193606638E+02 -2.437367761E+02  3.739766715E+02  1.250000000E+02  0.00000E+00  9.000E+00
      21     1     1     2   501   511  1.558801513E+02 -5.368764202E+00 -1.452193570E+02  2.131105507E+02  4.264961200E-06  0.00000E+00  9.000E+00
#rwgt            1           1   4.0805394907651282E-002           5       80232           0
</event>
<event>
      5   9999  3.79277E-02  4.76834E+01 -1.00000E+00  1.40261E-01
      21    -1     0     0   502   501  0.000000000E+00  0.000000000E+00  1.377403801E+02  1.377403801E+02  0.000000000E+00  0.00000E+00  9.000E+00
      21    -1     0     0   501   512  0.000000000E+00  0.000000000E+00 -4.576694739E+02  4.576694739E+02  0.000000000E+00  0.00000E+00  9.000E+00
      25     1     1     2     0     0 -1.342847228E+02  1.205929270E+02 -2.233256252E+02  3.131682865E+02  1.250000000E+02  0.00000E+00  9.000E+00
      25     1     1     2     0     0  1.547431662E+02 -7.752139032E+01 -5.894986421E+01  2.214838593E+02  1.250000000E+02  0.00000E+00  9.000E+00
      21     1     1     2   502   512 -2.045844347E+01 -4.307153672E+01 -3.765360438E+01  6.075770821E+01  6.743495762E-07  0.00000E+00  9.000E+00
#rwgt            1           1   4.1335697826876260E-002           5       80392           0
</event>
<event>
      5   9999  3.79277E-02  2.44701E+01 -1.00000E+00  1.59451E-01
      21    -1     0     0   502   501  0.000000000E+00  0.000000000E+00  4.852033959E+02  4.852033959E+02  0.000000000E+00  0.00000E+00  9.000E+00
      21    -1     0     0   511   502  0.000000000E+00  0.000000000E+00 -1.875449030E+02  1.875449030E+02  0.000000000E+00  0.00000E+00  9.000E+00
      25     1     1     2     0     0 -1.212828755E+02  7.922841706E+01  3.873234973E+02  4.320082980E+02  1.250000000E+02  0.00000E+00  9.000E+00
      25     1     1     2     0     0  1.027415219E+02 -9.519722045E+01 -1.016576881E+02  2.134891488E+02  1.250000000E+02  0.00000E+00  9.000E+00
      21     1     1     2   511   501  1.854135364E+01  1.596880339E+01  1.199268377E+01  2.725085210E+01  3.371747881E-07  0.00000E+00  9.000E+00
#rwgt            1           1   3.3304436120721495E-002           5       80603           0
</event>
<event>
      5   9999  3.79277E-02  8.07514E+01 -1.00000E+00  1.28153E-01
      21    -1     0     0   512   501  0.000000000E+00  0.000000000E+00  1.827442379E+02  1.827442379E+02  0.000000000E+00  0.00000E+00  9.000E+00
      21    -1     0     0   501   502  0.000000000E+00  0.000000000E+00 -3.325679041E+02  3.325679041E+02  0.000000000E+00  0.00000E+00  9.000E+00
      25     1     1     2     0     0  2.273584585E+00 -1.217421519E+02 -7.354419139E+01  1.893675495E+02  1.250000000E+02  0.00000E+00  9.000E+00
      25     1     1     2     0     0 -2.842904813E+01  1.981403068E+02 -5.246401918E+01  2.417545558E+02  1.250000000E+02  0.00000E+00  9.000E+00
      21     1     1     2   512   502  2.615546355E+01 -7.639815495E+01 -2.381545563E+01  8.419003670E+01  1.581489940E-06  0.00000E+00  9.000E+00
#rwgt            1           1   4.1264131246229685E-002           5       80760           0
</event>
<event>
      5   9999  3.79277E-02  2.85140E+01 -1.00000E+00  1.54588E-01
       2    -1     0     0   502     0  0.000000000E+00  0.000000000E+00  1.448078994E+03  1.448078994E+03  0.000000000E+00  0.00000E+00  9.000E+00
      21    -1     0     0   501   502  0.000000000E+00  0.000000000E+00 -1.053944706E+03  1.053944706E+03  0.000000000E+00  0.00000E+00  9.000E+00
      25     1     1     2     0     0  8.074937243E+00 -1.159543172E+02 -2.727187321E+02  3.217314332E+02  1.250000000E+02  0.00000E+00  9.000E+00
      25     1     1     2     0     0 -3.258700841E+01  1.013869578E+02 -7.476653252E+02  7.654865556E+02  1.250000000E+02  0.00000E+00  9.000E+00
       2     1     1     2   501     0  2.451207117E+01  1.456735944E+01  1.414518346E+03  1.414805711E+03  2.642899792E-05  0.00000E+00  9.000E+00
#rwgt            1           1   3.3177121283872700E-002           5       80816           0
</event>
<event>
      5   9999  3.79277E-02  2.87846E+01 -1.00000E+00  1.54298E-01
      21    -1     0     0   502   511  0.000000000E+00  0.000000000E+00  8.695082015E+01  8.695082015E+01  0.000000000E+00  0.00000E+00  9.000E+00
      21    -1     0     0   501   502  0.000000000E+00  0.000000000E+00 -8.392073791E+02  8.392073791E+02  0.000000000E+00  0.00000E+00  9.000E+00
      25     1     1     2     0     0 -1.621087137E+02 -1.366842681E+02 -2.609635851E+02  3.587322357E+02  1.250000000E+02  0.00000E+00  9.000E+00
      25     1     1     2     0     0  1.395846030E+02  1.187617480E+02 -4.908333406E+02  5.386377098E+02  1.250000000E+02  0.00000E+00  9.000E+00
      21     1     1     2   501   511  2.252411073E+01  1.792252004E+01 -4.596332643E-01  2.878825371E+01  5.092078038E-07  0.00000E+00  9.000E+00
#rwgt            1           1   3.5633483757669844E-002           5       80983           0
</event>
<event>
      5   9999  3.79277E-02  5.48056E+01 -1.00000E+00  1.36839E-01
       2    -1     0     0   502     0  0.000000000E+00  0.000000000E+00  1.110955533E+03  1.110955533E+03  0.000000000E+00  0.00000E+00  9.000E+00
      21    -1     0     0   501   502  0.000000000E+00  0.000000000E+00 -1.348802712E+02  1.348802712E+02  0.000000000E+00  0.00000E+00  9.000E+00
      25     1     1     2     0     0  1.574500547E+01  1.394458377E+02  8.350389749E+01  2.056476301E+02  1.250000000E+02  0.00000E+00  9.000E+00
      25     1     1     2     0     0 -3.056956153E+01 -1.922083383E+02  1.107617508E+02  2.564599556E+02  1.250000000E+02  0.00000E+00  9.000E+00
       2     1     1     2   501     0  1.482455606E+01  5.276250056E+01  7.818096132E+02  7.837282184E+02  0.000000000E+00  0.00000E+00  9.000E+00
#rwgt            1           1   3.3313708605011823E-002           5       81312           0
</event>
<event>
      5   9999  3.79277E-02  5.03395E+01 -1.00000E+00  1.38908E-01
      21    -1     0     0   511   501  0.000000000E+00  0.000000000E+00  2.941654283E+02  2.941654283E+02  0.000000000E+00  0.00000E+00  9.000E+00
      21    -1     0     0   501   502  0.000000000E+00  0.000000000E+00 -2.284710318E+02  2.284710318E+02  0.000000000E+00  0.00000E+00  9.000E+00
      25     1     1     2     0     0 -1.038350737E+02  1.725332963E+01  1.267885692E+02  2.068326405E+02  1.250000000E+02  0.00000E+00  9.000E+00
      25     1     1     2     0     0  1.443870608E+02 -4.707945784E+01 -1.260549007E+02  2.336213532E+02  1.250000000E+02  0.00000E+00  9.000E+00
      21     1     1     2   511   502 -4.055198711E+01  2.982612821E+01  6.496072802E+01  8.218246630E+01  1.348699152E-06  0.00000E+00  9.000E+00
#rwgt            1           1   4.2175089114838096E-002           5       81418           0
</event>
<event>
      5   9999  3.79277E-02  2.74935E+01 -1.00000E+00  1.55719E-01
      21    -1     0     0   512   501  0.000000000E+00  0.000000000E+00  3.279800771E+01  3.279800771E+01  0.000000000E+00  0.00000E+00  9.000E+00
      21    -1     0     0   501   502  0.000000000E+00  0.000000000E+00 -1.002454192E+03  1.002454192E+03  0.000000000E+00  0.00000E+00  9.000E+00
      25     1     1     2     0     0 -3.377138106E+01  7.449190368E+01 -2.699498193E+02  3.085246421E+02  1.250000000E+02  0.00000E+00  9.000E+00
      25     1     1     2     0     0  4.312355816E+01 -1.003459464E+02 -6.367284049E+02  6.580098874E+02  1.250000000E+02  0.00000E+00  9.000E+00
      21     1     1     2   512   502 -9.352177108E+00  2.585404269E+01 -6.297796019E+01  6.871767029E+01  0.000000000E+00  0.00000E+00  9.000E+00
#rwgt            1           1   4.0752817687132362E-002           5       81559           0
</event>
<event>
      5   9999  3.79277E-02  1.99400E+01 -1.00000E+00  1.66477E-01
      -4    -1     0     0     0   501  0.000000000E+00  0.000000000E+00  2.292839965E+02  2.292839965E+02  0.000000000E+00  0.00000E+00  9.000E+00
      21    -1     0     0   501   502  0.000000000E+00  0.000000000E+00 -6.053132046E+02  6.053132046E+02  0.000000000E+00  0.00000E+00  9.000E+00
      25     1     1     2     0     0  4.431753279E+01  8.928385113E+01 -4.764968965E+02  5.026031657E+02  1.250000000E+02  0.00000E+00  9.000E+00
      25     1     1     2     0     0 -4.604549145E+01 -1.091487899E+02 -5.069385119E+01  1.795230129E+02  1.250000000E+02  0.00000E+00  9.000E+00
      -4     1     1     2     0   502  1.727958665E+00  1.986493880E+01  1.511615396E+02  1.524710225E+02  3.303624740E-06  0.00000E+00  9.000E+00
#rwgt            1           1   4.3272035708137341E-002           5       81679           0
</event>
<event>
      5   9999  3.79277E-02  3.06115E+01 -1.00000E+00  1.52434E-01
      21    -1     0     0   502   511  0.000000000E+00  0.000000000E+00  3.691606342E+02  3.691606342E+02  0.000000000E+00  0.00000E+00  9.000E+00
      21    -1     0     0   501   502  0.000000000E+00  0.000000000E+00 -1.338394343E+02  1.338394343E+02  0.000000000E+00  0.00000E+00  9.000E+00
      25     1     1     2     0     0 -1.520712602E+02  4.492188624E+01  9.206859063E+01  2.219127518E+02  1.250000000E+02  0.00000E+00  9.000E+00
      25     1     1     2     0     0  1.215412036E+02 -4.715321267E+01  5.673416579E+01  1.893131142E+02  1.250000000E+02  0.00000E+00  9.000E+00
      21     1     1     2   501   511  3.053005651E+01  2.231326429E+00  8.651844347E+01  9.177420241E+01  1.348699152E-06  0.00000E+00  9.000E+00
#rwgt            1           1   3.8100938006997508E-002           5       81874           0
</event>
<event>
      5   9999  3.79277E-02  7.46745E+01 -1.00000E+00  1.29814E-01
      21    -1     0     0   512   501  0.000000000E+00  0.000000000E+00  8.304868045E+01  8.304868045E+01  0.000000000E+00  0.00000E+00  9.000E+00
      21    -1     0     0   501   502  0.000000000E+00  0.000000000E+00 -7.543412101E+02  7.543412101E+02  0.000000000E+00  0.00000E+00  9.000E+00
      25     1     1     2     0     0  7.890915259E+01 -5.841966662E+01 -3.727666827E+02  4.052400666E+02  1.250000000E+02  0.00000E+00  9.000E+00
      25     1     1     2     0     0 -1.504490443E+02  7.982830500E+01 -2.873333327E+02  3.566411604E+02  1.250000000E+02  0.00000E+00  9.000E+00
      21     1     1     2   512   502  7.153989173E+01 -2.140863837E+01 -1.119251428E+01  7.550866362E+01  2.345122763E-06  0.00000E+00  9.000E+00
#rwgt            1           1   4.4436525051696783E-002           5       82009           0
</event>
<event>
      5   9999 -3.79277E-02  1.36930E+01 -1.00000E+00  1.81197E-01
      21    -1     0     0   502   511  0.000000000E+00  0.000000000E+00  2.558455175E+03  2.558455175E+03  0.000000000E+00  0.00000E+00  9.000E+00
      21    -1     0     0   501   502  0.000000000E+00  0.000000000E+00 -2.631357424E+01  2.631357424E+01  0.000000000E+00  0.00000E+00  9.000E+00
      25     1     1     2     0     0 -3.194387875E+00  1.378964589E+02  7.323187480E+02  7.556066345E+02  1.250000000E+02  0.00000E+00  9.000E+00
      25     1     1     2     0     0 -4.785775984E-01 -1.510876463E+02  6.424965162E+02  6.717547761E+02  1.250000000E+02  0.00000E+00  9.000E+00
      21     1     1     2   501   511  3.672965474E+00  1.319118735E+01  1.157326337E+03  1.157407339E+03  1.525878906E-05  0.00000E+00  9.000E+00
#rwgt            1           1  -6.8417260255562842E-002           5       82136           0
</event>
<event>
      5   9999  3.79277E-02  3.32920E+01 -1.00000E+00  1.49964E-01
      21    -1     0     0   502   501  0.000000000E+00  0.000000000E+00  1.841812432E+02  1.841812432E+02  0.000000000E+00  0.00000E+00  9.000E+00
      21    -1     0     0   501   512  0.000000000E+00  0.000000000E+00 -6.573412930E+02  6.573412930E+02  0.000000000E+00  0.00000E+00  9.000E+00
      25     1     1     2     0     0  2.535745723E+02 -9.188300184E+01 -3.650011942E+02  4.707371044E+02  1.250000000E+02  0.00000E+00  9.000E+00
      25     1     1     2     0     0 -2.223500902E+02  8.033361113E+01 -1.052950799E+01  2.676358014E+02  1.250000000E+02  0.00000E+00  9.000E+00
      21     1     1     2   502   512 -3.122448210E+01  1.154939070E+01 -9.762934763E+01  1.031496303E+02  1.348699152E-06  0.00000E+00  9.000E+00
#rwgt            1           1   4.3097095461142029E-002           5       82331           0
</event>
<event>
      5   9999  3.79277E-02  9.88872E+00 -1.00000E+00  1.96321E-01
      21    -1     0     0   502   511  0.000000000E+00  0.000000000E+00  5.196989352E+01  5.196989352E+01  0.000000000E+00  0.00000E+00  9.000E+00
      21    -1     0     0   501   502  0.000000000E+00  0.000000000E+00 -1.896057797E+03  1.896057797E+03  0.000000000E+00  0.00000E+00  9.000E+00
      25     1     1     2     0     0 -2.537809885E+02  5.640811265E+01 -6.351908702E+02  6.976239008E+02  1.250000000E+02  0.00000E+00  9.000E+00
      25     1     1     2     0     0  2.616534930E+02 -6.239229540E+01 -1.202694168E+03  1.238730645E+03  1.250000000E+02  0.00000E+00  9.000E+00
      21     1     1     2   501   511 -7.872504526E+00  5.984182749E+00 -6.202865098E+00  1.167314465E+01  0.000000000E+00  0.00000E+00  9.000E+00
#rwgt            1           1   2.9778981030409029E-002           5       82411           0
</event>
<event>
      5   9999  3.79277E-02  2.19702E+01 -1.00000E+00  1.63071E-01
      21    -1     0     0   502   501  0.000000000E+00  0.000000000E+00  3.242133826E+01  3.242133826E+01  0.000000000E+00  0.00000E+00  9.000E+00
      21    -1     0     0   512   502  0.000000000E+00  0.000000000E+00 -1.343550790E+03  1.343550790E+03  0.000000000E+00  0.00000E+00  9.000E+00
      25     1     1     2     0     0  1.110932815E+01 -1.325998502E+02 -6.956017601E+02  7.191612796E+02  1.250000000E+02  0.00000E+00  9.000E+00
      25     1     1     2     0     0  9.792048733E+00  1.258305257E+02 -3.713756602E+02  4.116723046E+02  1.250000000E+02  0.00000E+00  9.000E+00
      21     1     1     2   512   501 -2.090137689E+01  6.769324481E+00 -2.441520317E+02  2.451385442E+02  2.697398305E-06  0.00000E+00  9.000E+00
#rwgt            1           1   4.3263839650350633E-002           5       82827           0
</event>
<event>
      5   9999 -3.79277E-02  1.63918E+01 -1.00000E+00  1.73829E-01
      21    -1     0     0   502   501  0.000000000E+00  0.000000000E+00  2.178757103E+02  2.178757103E+02  0.000000000E+00  0.00000E+00  9.000E+00
      21    -1     0     0   501   511  0.000000000E+00  0.000000000E+00 -1.920298291E+02  1.920298291E+02  0.000000000E+00  0.00000E+00  9.000E+00
      25     1     1     2     0     0 -6.509704433E+00  1.383327944E+02 -4.797899219E+01  1.926274174E+02  1.250000000E+02  0.00000E+00  9.000E+00
      25     1     1     2     0     0 -7.449233673E+00 -1.297398840E+02  8.299339942E+01  1.984964305E+02  1.250000000E+02  0.00000E+00  9.000E+00
      21     1     1     2   502   511  1.395893811E+01 -8.592910373E+00 -9.168526102E+00  1.878169142E+01  1.685873940E-07  0.00000E+00  9.000E+00
#rwgt            1           1  -3.2811252537124816E-002           5       82965           0
</event>
<event>
      5   9999  3.79277E-02  5.72044E+01 -1.00000E+00  1.35820E-01
      21    -1     0     0   502   501  0.000000000E+00  0.000000000E+00  5.851044159E+02  5.851044159E+02  0.000000000E+00  0.00000E+00  9.000E+00
      21    -1     0     0   512   502  0.000000000E+00  0.000000000E+00 -1.898826668E+02  1.898826668E+02  0.000000000E+00  0.00000E+00  9.000E+00
      25     1     1     2     0     0  8.385376380E+01  1.410495617E+02  3.326778983E+02  3.914409490E+02  1.250000000E+02  0.00000E+00  9.000E+00
      25     1     1     2     0     0 -2.669968550E+01 -1.434490868E+02  1.733934428E+02  2.588064909E+02  1.250000000E+02  0.00000E+00  9.000E+00
      21     1     1     2   512   501 -5.715407830E+01  2.399525165E+00 -1.108495921E+02  1.247396427E+02  3.015782986E-06  0.00000E+00  9.000E+00
#rwgt            1           1   3.4036250615756596E-002           5       83206           0
</event>
<event>
      5   9999  3.79277E-02  3.57651E+01 -1.00000E+00  1.47920E-01
      21    -1     0     0   502   501  0.000000000E+00  0.000000000E+00  2.097970795E+02  2.097970795E+02  0.000000000E+00  0.00000E+00  9.000E+00
      -3    -1     0     0     0   502  0.000000000E+00  0.000000000E+00 -4.084640000E+02  4.084640000E+02  0.000000000E+00  0.00000E+00  9.000E+00
      25     1     1     2     0     0  2.438603679E+01  4.644094999E+01 -1.696578785E+02  2.171640771E+02  1.250000000E+02  0.00000E+00  9.000E+00
      25     1     1     2     0     0 -5.046547001E+01 -2.196641751E+01  1.590625663E+02  2.096549240E+02  1.250000000E+02  0.00000E+00  9.000E+00
      -3     1     1     2     0   501  2.607943323E+01 -2.447453248E+01 -1.880716082E+02  1.914420784E+02  3.814697266E-06  0.00000E+00  9.000E+00
#rwgt            1           1   3.6489108770040135E-002           5       83290           0
</event>
<event>
      5   9999  3.79277E-02  9.00990E+01 -1.00000E+00  1.25899E-01
       1    -1     0     0   502     0  0.000000000E+00  0.000000000E+00  6.493627552E+02  6.493627552E+02  0.000000000E+00  0.00000E+00  9.000E+00
      21    -1     0     0   501   502  0.000000000E+00  0.000000000E+00 -1.251023377E+02  1.251023377E+02  0.000000000E+00  0.00000E+00  9.000E+00
      25     1     1     2     0     0  6.949487463E+01  5.552169052E+01  4.777392724E+02  5.017688792E+02  1.250000000E+02  0.00000E+00  9.000E+00
      25     1     1     2     0     0  1.915979424E+01 -7.158981265E+01 -3.687703378E+01  1.499236960E+02  1.250000000E+02  0.00000E+00  9.000E+00
       1     1     1     2   501     0 -8.865466887E+01  1.606812213E+01  8.339817896E+01  1.227725177E+02  2.336015456E-06  0.00000E+00  9.000E+00
#rwgt            1           1   4.2220814178238426E-002           5       83456           0
</event>
<event>
      5   9999  3.79277E-02  4.28366E+01 -1.00000E+00  1.43019E-01
      21    -1     0     0   502   501  0.000000000E+00  0.000000000E+00  6.532535431E+02  6.532535431E+02  0.000000000E+00  0.00000E+00  9.000E+00
       2    -1     0     0   501     0  0.000000000E+00  0.000000000E+00 -1.839855723E+03  1.839855723E+03  0.000000000E+00  0.00000E+00  9.000E+00
      25     1     1     2     0     0  2.585095542E+01 -2.612446553E+02  3.579627030E+02  4.611717018E+02  1.250000000E+02  0.00000E+00  9.000E+00
      25     1     1     2     0     0  1.499796510E+01  2.483474560E+02  1.637951025E+02  3.230406066E+02  1.250000000E+02  0.00000E+00  9.000E+00
       2     1     1     2   502     0 -4.084892052E+01  1.289719929E+01 -1.708359986E+03  1.708896958E+03  2.157918644E-05  0.00000E+00  9.000E+00
#rwgt            1           1   3.4779308542223608E-002           5       83509           0
</event>
<event>
      5   9999  3.79277E-02  1.86659E+02 -1.00000E+00  1.12750E-01
      21    -1     0     0   502   511  0.000000000E+00  0.000000000E+00  2.050909777E+03  2.050909777E+03  0.000000000E+00  0.00000E+00  9.000E+00
      21    -1     0     0   501   502  0.000000000E+00  0.000000000E+00 -1.616784284E+02  1.616784284E+02  0.000000000E+00  0.00000E+00  9.000E+00
      25     1     1     2     0     0  1.499678185E+02  5.778096107E+01  1.488098693E+01  2.041456094E+02  1.250000000E+02  0.00000E+00  9.000E+00
      25     1     1     2     0     0 -5.501282230E+01 -2.184830728E+02  2.065406937E+02  3.302201112E+02  1.250000000E+02  0.00000E+00  9.000E+00
      21     1     1     2   501   511 -9.495499624E+01  1.607021117E+02  1.667809668E+03  1.678222485E+03  3.051757812E-05  0.00000E+00  9.000E+00
#rwgt            1           1   3.9939969321772829E-002           5       83665           0
</event>
<event>
      5   9999  3.79277E-02  7.10803E+00 -1.00000E+00  2.14618E-01
      21    -1     0     0   502   501  0.000000000E+00  0.000000000E+00  4.204441812E+02  4.204441812E+02  0.000000000E+00  0.00000E+00  9.000E+00
      21    -1     0     0   501   512  0.000000000E+00  0.000000000E+00 -1.233278501E+02  1.233278501E+02  0.000000000E+00  0.00000E+00  9.000E+00
      25     1     1     2     0     0  1.411145606E+02  6.606523659E+01  2.602898546E+02  3.281062985E+02  1.250000000E+02  0.00000E+00  9.000E+00
      25     1     1     2     0     0 -1.481660282E+02 -6.517034674E+01  3.907219069E+01  2.082113880E+02  1.250000000E+02  0.00000E+00  9.000E+00
      21     1     1     2   502   512  7.051467636E+00 -8.948898480E-01 -2.245714224E+00  7.454344776E+00  5.161913656E-08  0.00000E+00  9.000E+00
#rwgt            1           1   2.2083768482444720E-002           5       83826           0
</event>
<event>
      5   9999  3.79277E-02  1.04104E+02 -1.00000E+00  1.23047E-01
      21    -1     0     0   502   511  0.000000000E+00  0.000000000E+00  2.581646209E+02  2.581646209E+02  0.000000000E+00  0.00000E+00  9.000E+00
      21    -1     0     0   501   502  0.000000000E+00  0.000000000E+00 -4.863035719E+02  4.863035719E+02  0.000000000E+00  0.00000E+00  9.000E+00
      25     1     1     2     0     0  2.049447292E+02  1.477064264E+02 -7.509668439E+01  2.916916907E+02  1.250000000E+02  0.00000E+00  9.000E+00
      25     1     1     2     0     0 -1.767986115E+02 -4.747952315E+01 -2.329331496E+02  3.215507834E+02  1.250000000E+02  0.00000E+00  9.000E+00
      21     1     1     2   501   511 -2.814611769E+01 -1.002269032E+02  7.989088290E+01  1.312257187E+02  3.303624740E-06  0.00000E+00  9.000E+00
#rwgt            1           1   3.8666895913502350E-002           5       84223           0
</event>
<event>
      5   9999  3.79277E-02  8.18433E+01 -1.00000E+00  1.27872E-01
      21    -1     0     0   502   501  0.000000000E+00  0.000000000E+00  1.131778346E+03  1.131778346E+03  0.000000000E+00  0.00000E+00  9.000E+00
      21    -1     0     0   512   502  0.000000000E+00  0.000000000E+00 -9.315915686E+01  9.315915686E+01  0.000000000E+00  0.00000E+00  9.000E+00
      25     1     1     2     0     0 -1.038616493E+02 -4.841130183E+01  8.604856479E+01  1.901584914E+02  1.250000000E+02  0.00000E+00  9.000E+00
      25     1     1     2     0     0  2.658480245E+01  2.145548765E+01  9.435877782E+02  9.524442161E+02  1.250000000E+02  0.00000E+00  9.000E+00
      21     1     1     2   512   501  7.727684689E+01  2.695581418E+01  8.982846063E+00  8.233479524E+01  1.517286546E-06  0.00000E+00  9.000E+00
#rwgt            1           1   3.4342180676145417E-002           5       84287           0
</event>
<event>
      5   9999  3.79277E-02  1.75256E+01 -1.00000E+00  1.71245E-01
      21    -1     0     0   502   501  0.000000000E+00  0.000000000E+00  2.684258376E+02  2.684258376E+02  0.000000000E+00  0.00000E+00  9.000E+00
       1    -1     0     0   501     0  0.000000000E+00  0.000000000E+00 -1.363276670E+03  1.363276670E+03  0.000000000E+00  0.00000E+00  9.000E+00
      25     1     1     2     0     0  1.280203365E+02 -1.415651792E+02 -1.971783365E+01  2.290058940E+02  1.250000000E+02  0.00000E+00  9.000E+00
      25     1     1     2     0     0 -1.449010035E+02  1.368546214E+02  7.919281254E+01  2.482377686E+02  1.250000000E+02  0.00000E+00  9.000E+00
       1     1     1     2   502     0  1.688066702E+01  4.710557796E+00 -1.154325811E+03  1.154458845E+03  1.525878906E-05  0.00000E+00  9.000E+00
#rwgt            1           1   4.0345300943430376E-002           5       84418           0
</event>
<event>
      5   9999  3.79277E-02  1.08504E+02 -1.00000E+00  1.22254E-01
      21    -1     0     0   511   501  0.000000000E+00  0.000000000E+00  4.115813251E+02  4.115813251E+02  0.000000000E+00  0.00000E+00  9.000E+00
      21    -1     0     0   501   502  0.000000000E+00  0.000000000E+00 -2.209770578E+02  2.209770578E+02  0.000000000E+00  0.00000E+00  9.000E+00
      25     1     1     2     0     0 -3.262859083E+00 -1.414408623E+02  9.029481764E+01  2.092709198E+02  1.250000000E+02  0.00000E+00  9.000E+00
      25     1     1     2     0     0 -1.275014313E+01  3.412505393E+01 -1.204078676E+02  1.773418733E+02  1.250000000E+02  0.00000E+00  9.000E+00
      21     1     1     2   511   502  1.601300222E+01  1.073158084E+02  2.207173173E+02  2.459455898E+02  2.697398305E-06  0.00000E+00  9.000E+00
#rwgt            2          11   1.6642567396669512E-003           5       84607           0
</event>
<event>
      5   9999  3.79277E-02  2.45916E+01 -1.00000E+00  1.59289E-01
      21    -1     0     0   502   512  0.000000000E+00  0.000000000E+00  6.305338058E+02  6.305338058E+02  0.000000000E+00  0.00000E+00  9.000E+00
      21    -1     0     0   501   502  0.000000000E+00  0.000000000E+00 -8.084797280E+01  8.084797280E+01  0.000000000E+00  0.00000E+00  9.000E+00
      25     1     1     2     0     0 -4.392493444E+01 -1.747418650E+02  2.426074773E+02  3.270282973E+02  1.250000000E+02  0.00000E+00  9.000E+00
      25     1     1     2     0     0  5.330213548E+01  1.520083191E+02  2.529014818E+02  3.248565934E+02  1.250000000E+02  0.00000E+00  9.000E+00
      21     1     1     2   501   512 -9.377201042E+00  2.273354582E+01  5.417687397E+01  5.949688797E+01  1.348699152E-06  0.00000E+00  9.000E+00
#rwgt            1           1   2.2079736836771176E-002           5       84627           0
</event>
<event>
      5   9999  3.79277E-02  5.71737E+01 -1.00000E+00  1.35833E-01
      21    -1     0     0   502   501  0.000000000E+00  0.000000000E+00  3.398530785E+02  3.398530785E+02  0.000000000E+00  0.00000E+00  9.000E+00
      21    -1     0     0   501   511  0.000000000E+00  0.000000000E+00 -4.221806883E+02  4.221806883E+02  0.000000000E+00  0.00000E+00  9.000E+00
      25     1     1     2     0     0 -1.971960419E+02 -1.959754606E+02  5.738143051E+01  3.101778339E+02  1.250000000E+02  0.00000E+00  9.000E+00
      25     1     1     2     0     0  2.410311654E+02  1.592696770E+02 -1.555077843E+01  3.151661140E+02  1.250000000E+02  0.00000E+00  9.000E+00
      21     1     1     2   502   511 -4.383512356E+01  3.670578364E+01 -1.241582618E+02  1.366898189E+02  2.336015456E-06  0.00000E+00  9.000E+00
#rwgt            1           1   3.1343224102332458E-002           5       84999           0
</event>
<event>
      5   9999  3.79277E-02  1.04051E+02 -1.00000E+00  1.23057E-01
      21    -1     0     0   502   501  0.000000000E+00  0.000000000E+00  4.516278240E+02  4.516278240E+02  0.000000000E+00  0.00000E+00  9.000E+00
      21    -1     0     0   512   502  0.000000000E+00  0.000000000E+00 -2.957735769E+02  2.957735769E+02  0.000000000E+00  0.00000E+00  9.000E+00
      25     1     1     2     0     0 -1.391398057E+02  8.992361334E+00  4.675934808E+00  1.873168771E+02  1.250000000E+02  0.00000E+00  9.000E+00
      25     1     1     2     0     0  1.091543079E+02 -1.086294192E+02  3.113043418E+02  3.691211276E+02  1.250000000E+02  0.00000E+00  9.000E+00
      21     1     1     2   512   501  2.998549780E+01  9.963705785E+01 -1.601260295E+02  1.909633962E+02  2.697398305E-06  0.00000E+00  9.000E+00
#rwgt            1           1   4.5112743149854424E-002           5       85290           0
</event>
<event>
      5   9999  3.79277E-02  7.20361E+01 -1.00000E+00  1.30593E-01
      21    -1     0     0   502   511  0.000000000E+00  0.000000000E+00  3.978276064E+02  3.978276064E+02  0.000000000E+00  0.00000E+00  9.000E+00
      21    -1     0     0   501   502  0.000000000E+00  0.000000000E+00 -2.041995301E+02  2.041995301E+02  0.000000000E+00  0.00000E+00  9.000E+00
      25     1     1     2     0     0  2.071102016E+02  7.354235426E+01  4.219173298E+01  2.563362163E+02  1.250000000E+02  0.00000E+00  9.000E+00
      25     1     1     2     0     0 -1.475486864E+02 -1.140593761E+02  6.615018828E+01  2.340534203E+02  1.250000000E+02  0.00000E+00  9.000E+00
      21     1     1     2   501   511 -5.956151518E+01  4.051702185E+01  8.528615500E+01  1.116374999E+02  2.132480600E-06  0.00000E+00  9.000E+00
#rwgt            1           1   4.1514493723658438E-002           5       85419           0
</event>
<event>
      5   9999  3.79277E-02  2.98288E+01 -1.00000E+00  1.53213E-01
      21    -1     0     0   502   501  0.000000000E+00  0.000000000E+00  2.189279440E+02  2.189279440E+02  0.000000000E+00  0.00000E+00  9.000E+00
      21    -1     0     0   501   512  0.000000000E+00  0.000000000E+00 -2.776108741E+02  2.776108741E+02  0.000000000E+00  0.00000E+00  9.000E+00
      25     1     1     2     0     0  4.288481920E+01 -6.261116149E+01  1.584197810E+02  2.155947408E+02  1.250000000E+02  0.00000E+00  9.000E+00
      25     1     1     2     0     0 -6.662143062E+01  4.454647611E+01 -1.805551699E+02  2.337690590E+02  1.250000000E+02  0.00000E+00  9.000E+00
      21     1     1     2   502   512  2.373661142E+01  1.806468538E+01 -3.654754119E+01  4.717501825E+01  0.000000000E+00  0.00000E+00  9.000E+00
#rwgt            1           1   4.0052365999542157E-002           5       85532           0
</event>
<event>
      5   9999  3.79277E-02  2.93739E+02 -1.00000E+00  1.05890E-01
      21    -1     0     0   502   501  0.000000000E+00  0.000000000E+00  2.530723309E+02  2.530723309E+02  0.000000000E+00  0.00000E+00  9.000E+00
      21    -1     0     0   511   502  0.000000000E+00  0.000000000E+00 -1.021527678E+03  1.021527678E+03  0.000000000E+00  0.00000E+00  9.000E+00
      25     1     1     2     0     0  1.232985154E+01  5.335367852E+01 -1.132543477E+02  1.773420072E+02  1.250000000E+02  0.00000E+00  9.000E+00
      25     1     1     2     0     0  1.070930741E+02 -3.217210643E+02  1.896238973E+01  3.618811158E+02  1.250000000E+02  0.00000E+00  9.000E+00
      21     1     1     2   511   501 -1.194229257E+02  2.683673858E+02 -6.741633892E+02  7.353768859E+02  0.000000000E+00  0.00000E+00  9.000E+00
#rwgt            2          11   7.6274116217131137E-004           5       85662           0
</event>
<event>
      5   9999  3.79277E-02  2.99183E+01 -1.00000E+00  1.53122E-01
      21    -1     0     0   502   501  0.000000000E+00  0.000000000E+00  1.826054269E+02  1.826054269E+02  0.000000000E+00  0.00000E+00  9.000E+00
      21    -1     0     0   512   502  0.000000000E+00  0.000000000E+00 -6.279693162E+02  6.279693162E+02  0.000000000E+00  0.00000E+00  9.000E+00
      25     1     1     2     0     0 -2.848499854E+01  2.195869210E+02 -3.945500273E+02  4.693874041E+02  1.250000000E+02  0.00000E+00  9.000E+00
      25     1     1     2     0     0  2.141479868E+01 -1.905160744E+02  5.149951490E+01  2.345893609E+02  1.250000000E+02  0.00000E+00  9.000E+00
      21     1     1     2   512   501  7.070199853E+00 -2.907084658E+01 -1.023133768E+02  1.065979781E+02  1.348699152E-06  0.00000E+00  9.000E+00
#rwgt            1           1  0.19051694030051453                5       85772           0
</event>
<event>
      5   9999  3.79277E-02  1.01908E+01 -1.00000E+00  1.94813E-01
      21    -1     0     0   502   501  0.000000000E+00  0.000000000E+00  8.960491737E+01  8.960491737E+01  0.000000000E+00  0.00000E+00  9.000E+00
      21    -1     0     0   501   511  0.000000000E+00  0.000000000E+00 -1.010876196E+03  1.010876196E+03  0.000000000E+00  0.00000E+00  9.000E+00
      25     1     1     2     0     0 -5.250204678E+01  1.030875630E+02 -2.501990560E+01  1.721467579E+02  1.250000000E+02  0.00000E+00  9.000E+00
      25     1     1     2     0     0  5.752894035E+01 -1.119522828E+02 -4.763316530E+02  5.082909956E+02  1.250000000E+02  0.00000E+00  9.000E+00
      21     1     1     2   502   511 -5.026893573E+00  8.864719737E+00 -4.199197202E+02  4.200433601E+02  7.629394531E-06  0.00000E+00  9.000E+00
#rwgt            1           1  0.10885037026719889                5       85911           0
</event>
<event>
      5   9999  3.79277E-02  6.04806E+01 -1.00000E+00  1.34519E-01
      21    -1     0     0   502   501  0.000000000E+00  0.000000000E+00  2.991727229E+02  2.991727229E+02  0.000000000E+00  0.00000E+00  9.000E+00
      21    -1     0     0   512   502  0.000000000E+00  0.000000000E+00 -1.750407941E+02  1.750407941E+02  0.000000000E+00  0.00000E+00  9.000E+00
      25     1     1     2     0     0 -2.361649044E-01 -1.208271212E+02  5.719808439E+01  1.830187691E+02  1.250000000E+02  0.00000E+00  9.000E+00
      25     1     1     2     0     0  5.042367236E+00  1.811164518E+02  6.898792830E+01  2.306792770E+02  1.250000000E+02  0.00000E+00  9.000E+00
      21     1     1     2   512   501 -4.806202332E+00 -6.028933056E+01 -2.054083886E+00  6.051547092E+01  6.802506572E-07  0.00000E+00  9.000E+00
#rwgt            1           1   4.0727436601894151E-002           5       86178           0
</event>
<event>
      5   9999  3.79277E-02  1.17728E+02 -1.00000E+00  1.20722E-01
      21    -1     0     0   502   501  0.000000000E+00  0.000000000E+00  1.249722719E+02  1.249722719E+02  0.000000000E+00  0.00000E+00  9.000E+00
      21    -1     0     0   501   511  0.000000000E+00  0.000000000E+00 -4.422391749E+02  4.422391749E+02  0.000000000E+00  0.00000E+00  9.000E+00
      25     1     1     2     0     0 -4.700979573E+01 -1.758093316E+00 -3.681673146E+01  1.385405482E+02  1.250000000E+02  0.00000E+00  9.000E+00
      25     1     1     2     0     0  1.274634806E+02  8.770667524E+01 -1.299529508E+02  2.375966523E+02  1.250000000E+02  0.00000E+00  9.000E+00
      21     1     1     2   502   511 -8.045368490E+01 -8.594858193E+01 -1.504972208E+02  1.910742463E+02  1.907348633E-06  0.00000E+00  9.000E+00
#rwgt            1           1   2.5569269093592591E-002           5       86284           0
</event>
<event>
      5   9999  3.79277E-02  1.32633E+02 -1.00000E+00  1.18552E-01
      21    -1     0     0   512   501  0.000000000E+00  0.000000000E+00  2.497572611E+03  2.497572611E+03  0.000000000E+00  0.00000E+00  9.000E+00
      21    -1     0     0   501   502  0.000000000E+00  0.000000000E+00 -2.940279209E+01  2.940279209E+01  0.000000000E+00  0.00000E+00  9.000E+00
      25     1     1     2     0     0  9.614358603E+01  1.872499330E+01  5.657978147E+02  5.876617919E+02  1.250000000E+02  0.00000E+00  9.000E+00
      25     1     1     2     0     0 -1.853942292E+02  7.938637441E+01  1.034237347E+03  1.061105606E+03  1.250000000E+02  0.00000E+00  9.000E+00
      21     1     1     2   512   502  8.925064320E+01 -9.811136772E+01  8.681346569E+02  8.782080051E+02  0.000000000E+00  0.00000E+00  9.000E+00
#rwgt            1           1   3.5643436649576220E-002           5       86444           0
</event>
<event>
      5   9999  3.79277E-02  1.87167E+01 -1.00000E+00  1.68781E-01
      21    -1     0     0   502   501  0.000000000E+00  0.000000000E+00  1.200783476E+02  1.200783476E+02  0.000000000E+00  0.00000E+00  9.000E+00
      21    -1     0     0   501   511  0.000000000E+00  0.000000000E+00 -1.763598150E+03  1.763598150E+03  0.000000000E+00  0.00000E+00  9.000E+00
      25     1     1     2     0     0  1.122748591E+02  1.994498329E+02 -1.694080004E+02  3.109822349E+02  1.250000000E+02  0.00000E+00  9.000E+00
      25     1     1     2     0     0 -1.219664266E+02 -1.834376919E+02 -2.766284752E+02  3.750646735E+02  1.250000000E+02  0.00000E+00  9.000E+00
      21     1     1     2   502   511  9.691567555E+00 -1.601214099E+01 -1.197483327E+03  1.197629590E+03  0.000000000E+00  0.00000E+00  9.000E+00
#rwgt            1           1   3.2719717406228449E-002           5       86494           0
</event>
<event>
      5   9999  3.79277E-02  3.10367E+01 -1.00000E+00  1.52022E-01
      21    -1     0     0   502   501  0.000000000E+00  0.000000000E+00  5.508256006E+01  5.508256006E+01  0.000000000E+00  0.00000E+00  9.000E+00
      21    -1     0     0   512   502  0.000000000E+00  0.000000000E+00 -1.058672961E+03  1.058672961E+03  0.000000000E+00  0.00000E+00  9.000E+00
      25     1     1     2     0     0 -1.180954991E+02  1.152733456E+02 -2.236994454E+02  3.047965436E+02  1.250000000E+02  0.00000E+00  9.000E+00
      25     1     1     2     0     0  9.487988914E+01 -9.467445300E+01 -6.442355818E+02  6.697984251E+02  1.250000000E+02  0.00000E+00  9.000E+00
      21     1     1     2   512   501  2.321560992E+01 -2.059889257E+01 -1.356553740E+02  1.391605527E+02  1.907348633E-06  0.00000E+00  9.000E+00
#rwgt            1           1   4.5282637805015943E-002           5       86624           0
</event>
<event>
      5   9999 -3.79277E-02  1.30091E+02 -1.00000E+00  1.18898E-01
      21    -1     0     0   502   501  0.000000000E+00  0.000000000E+00  9.407901727E+02  9.407901727E+02  0.000000000E+00  0.00000E+00  9.000E+00
      21    -1     0     0   511   502  0.000000000E+00  0.000000000E+00 -2.127635625E+02  2.127635625E+02  0.000000000E+00  0.00000E+00  9.000E+00
      25     1     1     2     0     0  9.889841509E+01 -1.395087763E+02  7.155763485E+02  7.462694592E+02  1.250000000E+02  0.00000E+00  9.000E+00
      25     1     1     2     0     0 -2.235449105E+02  1.022659814E+02 -6.267998241E+00  2.758531235E+02  1.250000000E+02  0.00000E+00  9.000E+00
      21     1     1     2   511   501  1.246464954E+02  3.724279488E+01  1.871825991E+01  1.314311525E+02  1.390207266E-06  0.00000E+00  9.000E+00
#rwgt            1           1 -0.17348576670551483                5       86754           0
</event>
<event>
      5   9999  3.79277E-02  7.30614E+01 -1.00000E+00  1.30286E-01
      21    -1     0     0   502   512  0.000000000E+00  0.000000000E+00  2.450421695E+02  2.450421695E+02  0.000000000E+00  0.00000E+00  9.000E+00
      21    -1     0     0   501   502  0.000000000E+00  0.000000000E+00 -6.989808200E+02  6.989808200E+02  0.000000000E+00  0.00000E+00  9.000E+00
      25     1     1     2     0     0  3.030629324E+02 -1.238226105E+02 -4.329700044E+02  5.570163414E+02  1.250000000E+02  0.00000E+00  9.000E+00
      25     1     1     2     0     0 -2.407511713E+02  8.567534900E+01 -7.725372606E+01  2.947787816E+02  1.250000000E+02  0.00000E+00  9.000E+00
      21     1     1     2   501   512 -6.231176109E+01  3.814726154E+01  5.628507991E+01  9.222786646E+01  9.536743164E-07  0.00000E+00  9.000E+00
#rwgt            2          11   1.8305273297212490E-003           5       86845           0
</event>
<event>
      5   9999 -3.79277E-02  1.10056E+01 -1.00000E+00  1.91066E-01
      21    -1     0     0   502   511  0.000000000E+00  0.000000000E+00  2.326704859E+02  2.326704859E+02  0.000000000E+00  0.00000E+00  9.000E+00
      21    -1     0     0   501   502  0.000000000E+00  0.000000000E+00 -1.518633197E+02  1.518633197E+02  0.000000000E+00  0.00000E+00  9.000E+00
      25     1     1     2     0     0 -6.540603095E+00 -5.851571458E+01  1.062496629E+02  1.743010591E+02  1.250000000E+02  0.00000E+00  9.000E+00
      25     1     1     2     0     0  1.102404496E+01  6.856672537E+01 -7.360560482E+01  1.608282017E+02  1.250000000E+02  0.00000E+00  9.000E+00
      21     1     1     2   501   511 -4.483441866E+00 -1.005101079E+01  4.816310816E+01  4.940454490E+01  6.743495762E-07  0.00000E+00  9.000E+00
#rwgt            1           1  -1.8040036240280114E-002           5       86895           0
</event>
<event>
      5   9999  3.79277E-02  6.05029E+01 -1.00000E+00  1.34510E-01
      21    -1     0     0   512   501  0.000000000E+00  0.000000000E+00  7.718752164E+01  7.718752164E+01  0.000000000E+00  0.00000E+00  9.000E+00
      21    -1     0     0   501   502  0.000000000E+00  0.000000000E+00 -6.435685003E+02  6.435685003E+02  0.000000000E+00  0.00000E+00  9.000E+00
      25     1     1     2     0     0  5.563994116E+01 -9.116850116E+01 -7.421468175E+01  1.803893501E+02  1.250000000E+02  0.00000E+00  9.000E+00
      25     1     1     2     0     0 -5.518511268E+01  3.066731944E+01 -4.355354668E+02  4.574953814E+02  1.250000000E+02  0.00000E+00  9.000E+00
      21     1     1     2   512   502 -4.548284792E-01  6.050118172E+01 -5.663083011E+01  8.287129043E+01  1.348699152E-06  0.00000E+00  9.000E+00
#rwgt            1           1   3.9990199029393110E-002           5       87266           0
</event>
<event>
      5   9999 -3.79277E-02  1.11759E+02 -1.00000E+00  1.21695E-01
      21    -1     0     0   502   501  0.000000000E+00  0.000000000E+00  1.921919650E+02  1.921919650E+02  0.000000000E+00  0.00000E+00  9.000E+00
      21    -1     0     0   511   502  0.000000000E+00  0.000000000E+00 -1.292237314E+03  1.292237314E+03  0.000000000E+00  0.00000E+00  9.000E+00
      25     1     1     2     0     0  1.653583996E+02 -3.852692913E+01 -4.735450925E+01  2.160906619E+02  1.250000000E+02  0.00000E+00  9.000E+00
      25     1     1     2     0     0 -1.184016849E+02 -6.288843090E+01  2.488615172E+01  1.849817133E+02  1.250000000E+02  0.00000E+00  9.000E+00
      21     1     1     2   511   501 -4.695671474E+01  1.014153600E+02 -1.077576992E+03  1.083356904E+03  2.157918644E-05  0.00000E+00  9.000E+00
#rwgt            1           1  -7.4579122728335140E-002           5       87339           0
</event>
<event>
      5   9999  3.79277E-02  2.00067E+02 -1.00000E+00  1.11643E-01
      21    -1     0     0   502   501  0.000000000E+00  0.000000000E+00  3.680854975E+02  3.680854975E+02  0.000000000E+00  0.00000E+00  9.000E+00
      21    -1     0     0   501   512  0.000000000E+00  0.000000000E+00 -1.007741561E+03  1.007741561E+03  0.000000000E+00  0.00000E+00  9.000E+00
      25     1     1     2     0     0 -1.763526550E+02 -7.073767600E+01  7.795814013E+01  2.404299261E+02  1.250000000E+02  0.00000E+00  9.000E+00
      25     1     1     2     0     0  1.671795946E+02  2.705939689E+02  4.706528998E+01  3.449786289E+02  1.250000000E+02  0.00000E+00  9.000E+00
      21     1     1     2   502   512  9.173060388E+00 -1.998562929E+02 -7.646794932E+02  7.904185032E+02  0.000000000E+00  0.00000E+00  9.000E+00
#rwgt            1           1  0.24796073957319559                5       87379           0
</event>
<event>
      5   9999  3.79277E-02  2.23556E+02 -1.00000E+00  1.09916E-01
      -1    -1     0     0     0   501  0.000000000E+00  0.000000000E+00  9.621806885E+02  9.621806885E+02  0.000000000E+00  0.00000E+00  9.000E+00
      21    -1     0     0   501   502  0.000000000E+00  0.000000000E+00 -3.367933070E+02  3.367933070E+02  0.000000000E+00  0.00000E+00  9.000E+00
      25     1     1     2     0     0  3.705652252E+02 -1.917515497E+02 -2.659748849E+01  4.363710226E+02  1.250000000E+02  0.00000E+00  9.000E+00
      25     1     1     2     0     0 -1.563359236E+02  2.556512502E+02  2.806718207E+02  4.291854537E+02  1.250000000E+02  0.00000E+00  9.000E+00
      -1     1     1     2     0   502 -2.142293016E+02 -6.389970042E+01  3.713130493E+02  4.334175192E+02  0.000000000E+00  0.00000E+00  9.000E+00
#rwgt            2           5   5.5759688212635060E-005           5       87598           0
</event>
<event>
      5   9999  3.79277E-02  1.66378E+02 -1.00000E+00  1.14637E-01
      21    -1     0     0   502   501  0.000000000E+00  0.000000000E+00  1.444990195E+02  1.444990195E+02  0.000000000E+00  0.00000E+00  9.000E+00
      21    -1     0     0   501   511  0.000000000E+00  0.000000000E+00 -1.080387691E+03  1.080387691E+03  0.000000000E+00  0.00000E+00  9.000E+00
      25     1     1     2     0     0 -3.111896830E+01 -6.441457955E+01 -3.311394283E+02  3.611037929E+02  1.250000000E+02  0.00000E+00  9.000E+00
      25     1     1     2     0     0 -8.534175150E+01  1.832364794E+02 -1.142873051E+00  2.376660011E+02  1.250000000E+02  0.00000E+00  9.000E+00
      21     1     1     2   502   511  1.164607198E+02 -1.188218999E+02 -6.036063698E+02  6.261169162E+02  7.629394531E-06  0.00000E+00  9.000E+00
#rwgt            1           1   3.8688452527864910E-002           5       87647           0
</event>
<event>
      5   9999  3.79277E-02  6.83134E+01 -1.00000E+00  1.31759E-01
      21    -1     0     0   502   512  0.000000000E+00  0.000000000E+00  6.366114002E+02  6.366114002E+02  0.000000000E+00  0.00000E+00  9.000E+00
      21    -1     0     0   501   502  0.000000000E+00  0.000000000E+00 -2.341380775E+02  2.341380775E+02  0.000000000E+00  0.00000E+00  9.000E+00
      25     1     1     2     0     0  1.229908518E+02  1.065905428E+02  2.056005543E+01  2.062425982E+02  1.250000000E+02  0.00000E+00  9.000E+00
      25     1     1     2     0     0 -1.912950102E+02 -1.077145253E+02 -2.318384063E+01  2.536901463E+02  1.250000000E+02  0.00000E+00  9.000E+00
      21     1     1     2   501   512  6.830415836E+01  1.123982462E+00  4.050971079E+02  4.108167331E+02  5.394796609E-06  0.00000E+00  9.000E+00
#rwgt            1           1   4.2996296976342260E-002           5       87802           0
</event>
<event>
      5   9999  3.79277E-02  1.79206E+02 -1.00000E+00  1.13412E-01
      21    -1     0     0   502   511  0.000000000E+00  0.000000000E+00  7.854697466E+02  7.854697466E+02  0.000000000E+00  0.00000E+00  9.000E+00
      21    -1     0     0   501   502  0.000000000E+00  0.000000000E+00 -5.941314245E+02  5.941314245E+02  0.000000000E+00  0.00000E+00  9.000E+00
      25     1     1     2     0     0  7.573491843E+01  8.566325505E+01 -2.341406601E+02  2.889996883E+02  1.250000000E+02  0.00000E+00  9.000E+00
      25     1     1     2     0     0 -9.260369787E+01 -2.640730975E+02 -2.476428429E+02  3.940330232E+02  1.250000000E+02  0.00000E+00  9.000E+00
      21     1     1     2   501   511  1.686877944E+01  1.784098425E+02  6.731218251E+02  6.965684597E+02  7.629394531E-06  0.00000E+00  9.000E+00
#rwgt            1           1   2.5532508632420660E-002           5       87931           0
</event>
<event>
      5   9999  3.79277E-02  1.76663E+02 -1.00000E+00  1.13645E-01
      21    -1     0     0   502   501  0.000000000E+00  0.000000000E+00  2.003592804E+02  2.003592804E+02  0.000000000E+00  0.00000E+00  9.000E+00
      21    -1     0     0   501   512  0.000000000E+00  0.000000000E+00 -9.702635075E+02  9.702635075E+02  0.000000000E+00  0.00000E+00  9.000E+00
      25     1     1     2     0     0 -1.184197135E+01  1.251017134E+02  6.753708146E+01  1.896758507E+02  1.250000000E+02  0.00000E+00  9.000E+00
      25     1     1     2     0     0 -3.626897624E+01 -2.950874630E+02 -6.353712176E+02  7.125402680E+02  1.250000000E+02  0.00000E+00  9.000E+00
      21     1     1     2   502   512  4.811094758E+01  1.699857496E+02 -2.020700910E+02  2.684066691E+02  4.672030912E-06  0.00000E+00  9.000E+00
#rwgt            1           1   4.4461120793540067E-002           5       88008           0
</event>
<event>
      5   9999  3.79277E-02  1.01213E+02 -1.00000E+00  1.23593E-01
       1    -1     0     0   502     0  0.000000000E+00  0.000000000E+00  2.057427221E+03  2.057427221E+03  0.000000000E+00  0.00000E+00  9.000E+00
      21    -1     0     0   501   502  0.000000000E+00  0.000000000E+00 -1.323826127E+02  1.323826127E+02  0.000000000E+00  0.00000E+00  9.000E+00
      25     1     1     2     0     0  1.293332366E+02 -2.686712200E+01  3.265607495E+01  1.847710680E+02  1.250000000E+02  0.00000E+00  9.000E+00
      25     1     1     2     0     0 -1.329557566E+02  1.280151605E+02  1.716931764E+02  2.813692616E+02  1.250000000E+02  0.00000E+00  9.000E+00
       1     1     1     2   501     0  3.622520017E+00 -1.011480385E+02  1.720695357E+03  1.723669504E+03  3.051757812E-05  0.00000E+00  9.000E+00
#rwgt            1           1   3.2029355314824752E-002           5       88225           0
</event>
<event>
      5   9999  3.79277E-02  6.83555E+00 -1.00000E+00  2.17023E-01
      21    -1     0     0   502   501  0.000000000E+00  0.000000000E+00  1.179963420E+02  1.179963420E+02  0.000000000E+00  0.00000E+00  9.000E+00
       2    -1     0     0   501     0  0.000000000E+00  0.000000000E+00 -1.429112256E+03  1.429112256E+03  0.000000000E+00  0.00000E+00  9.000E+00
      25     1     1     2     0     0 -2.355388306E+01 -8.793333580E+01 -2.777944624E+02  3.179336728E+02  1.250000000E+02  0.00000E+00  9.000E+00
      25     1     1     2     0     0  1.673199222E+01  8.836526052E+01  3.737051082E+01  1.584611432E+02  1.250000000E+02  0.00000E+00  9.000E+00
       2     1     1     2   502     0  6.821890838E+00 -4.319247257E-01 -1.070691963E+03  1.070713783E+03  1.525878906E-05  0.00000E+00  9.000E+00
#rwgt            1           1   9.6562662844131883E-002           5       88305           0
</event>
<event>
      5   9999  3.79277E-02  1.25046E+02 -1.00000E+00  1.19614E-01
      21    -1     0     0   502   501  0.000000000E+00  0.000000000E+00  4.581564410E+02  4.581564410E+02  0.000000000E+00  0.00000E+00  9.000E+00
      21    -1     0     0   511   502  0.000000000E+00  0.000000000E+00 -1.027432769E+02  1.027432769E+02  0.000000000E+00  0.00000E+00  9.000E+00
      25     1     1     2     0     0 -1.161528401E+02  4.482542470E+01  1.384531657E+02  2.242656461E+02  1.250000000E+02  0.00000E+00  9.000E+00
      25     1     1     2     0     0  2.166884416E+01  3.708451906E+01  1.176532249E+02  1.769522017E+02  1.250000000E+02  0.00000E+00  9.000E+00
      21     1     1     2   511   501  9.448399590E+01 -8.190994376E+01  9.930677344E+01  1.596818700E+02  1.907348633E-06  0.00000E+00  9.000E+00
#rwgt            1           1   5.4708985444177544E-002           5       88600           0
</event>
<event>
      5   9999  3.79277E-02  7.06089E+00 -1.00000E+00  2.15023E-01
      21    -1     0     0   502   501  0.000000000E+00  0.000000000E+00  1.117476337E+03  1.117476337E+03  0.000000000E+00  0.00000E+00  9.000E+00
       2    -1     0     0   501     0  0.000000000E+00  0.000000000E+00 -5.257464747E+01  5.257464747E+01  0.000000000E+00  0.00000E+00  9.000E+00
      25     1     1     2     0     0  1.197069840E+02 -5.640870840E+01  3.729716000E+02  4.150235159E+02  1.250000000E+02  0.00000E+00  9.000E+00
      25     1     1     2     0     0 -1.227560893E+02  5.004010244E+01  7.113761250E+02  7.343391999E+02  1.250000000E+02  0.00000E+00  9.000E+00
       2     1     1     2   502     0  3.049105243E+00  6.368605956E+00 -1.944603517E+01  2.068826886E+01  1.118282261E-06  0.00000E+00  9.000E+00
#rwgt            1           1   3.1283680044098837E-002           5       88736           0
</event>
<event>
      5   9999  3.79277E-02  6.99923E+00 -1.00000E+00  2.15560E-01
      21    -1     0     0   502   501  0.000000000E+00  0.000000000E+00  2.356650525E+02  2.356650525E+02  0.000000000E+00  0.00000E+00  9.000E+00
      21    -1     0     0   511   502  0.000000000E+00  0.000000000E+00 -2.228300950E+02  2.228300950E+02  0.000000000E+00  0.00000E+00  9.000E+00
      25     1     1     2     0     0 -9.983017831E+01 -1.577608853E+02  3.548955121E+01  2.274622379E+02  1.250000000E+02  0.00000E+00  9.000E+00
      25     1     1     2     0     0  1.021789362E+02  1.511675145E+02 -1.662761731E+01  2.217963708E+02  1.250000000E+02  0.00000E+00  9.000E+00
      21     1     1     2   511   501 -2.348757940E+00  6.593370849E+00 -6.026976442E+00  9.236538748E+00  1.192092896E-07  0.00000E+00  9.000E+00
#rwgt            1           1   3.8970765430570084E-002           5       89162           0
</event>
<event>
      5   9999  3.79277E-02  1.78253E+01 -1.00000E+00  1.70602E-01
      21    -1     0     0   502   501  0.000000000E+00  0.000000000E+00  5.971835923E+01  5.971835923E+01  0.000000000E+00  0.00000E+00  9.000E+00
      21    -1     0     0   501   512  0.000000000E+00  0.000000000E+00 -7.953201428E+02  7.953201428E+02  0.000000000E+00  0.00000E+00  9.000E+00
      25     1     1     2     0     0  7.442668435E+01 -1.108041453E+02 -5.152497450E+02  5.467395995E+02  1.250000000E+02  0.00000E+00  9.000E+00
      25     1     1     2     0     0 -6.249972519E+01  1.240513356E+02 -1.620946384E+02  2.473754663E+02  1.250000000E+02  0.00000E+00  9.000E+00
      21     1     1     2   502   512 -1.192695916E+01 -1.324719034E+01 -5.825740025E+01  6.092343629E+01  6.743495762E-07  0.00000E+00  9.000E+00
#rwgt            1           1   2.6402557945607665E-002           5       89520           0
</event>
<event>
      5   9999  3.79277E-02  4.98094E+01 -1.00000E+00  1.39170E-01
      21    -1     0     0   502   501  0.000000000E+00  0.000000000E+00  1.249135176E+03  1.249135176E+03  0.000000000E+00  0.00000E+00  9.000E+00
      21    -1     0     0   511   502  0.000000000E+00  0.000000000E+00 -6.413538793E+01  6.413538793E+01  0.000000000E+00  0.00000E+00  9.000E+00
      25     1     1     2     0     0  1.337179060E+01  5.990027916E+01  4.638425090E+01  1.467765205E+02  1.250000000E+02  0.00000E+00  9.000E+00
      25     1     1     2     0     0 -2.886779884E+00 -1.120690377E+01  1.088924185E+03  1.096136310E+03  1.250000000E+02  0.00000E+00  9.000E+00
      21     1     1     2   511   501 -1.048501072E+01 -4.869337539E+01  4.969135212E+01  7.035773398E+01  1.507891493E-06  0.00000E+00  9.000E+00
#rwgt            1           1   4.5042677480576818E-002           5       89745           0
</event>
<event>
      5   9999  3.79277E-02  3.45912E+01 -1.00000E+00  1.48865E-01
      21    -1     0     0   512   501  0.000000000E+00  0.000000000E+00  2.120953701E+02  2.120953701E+02  0.000000000E+00  0.00000E+00  9.000E+00
      21    -1     0     0   501   502  0.000000000E+00  0.000000000E+00 -2.289724014E+02  2.289724014E+02  0.000000000E+00  0.00000E+00  9.000E+00
      25     1     1     2     0     0 -5.522371361E+01 -4.364199160E+01 -1.473062284E+02  2.056171367E+02  1.250000000E+02  0.00000E+00  9.000E+00
      25     1     1     2     0     0  6.333890776E+01  7.726779460E+01  9.581206581E+01  1.865129520E+02  1.250000000E+02  0.00000E+00  9.000E+00
      21     1     1     2   512   502 -8.115194156E+00 -3.362580300E+01  3.461713133E+01  4.893768267E+01  9.536743164E-07  0.00000E+00  9.000E+00
#rwgt            2          11   1.7120080854498029E-003           5       89867           0
</event>
<event>
      5   9999  3.79277E-02  3.60517E+01 -1.00000E+00  1.47696E-01
      21    -1     0     0   511   501  0.000000000E+00  0.000000000E+00  6.648478053E+02  6.648478053E+02  0.000000000E+00  0.00000E+00  9.000E+00
      21    -1     0     0   501   502  0.000000000E+00  0.000000000E+00 -1.636233280E+02  1.636233280E+02  0.000000000E+00  0.00000E+00  9.000E+00
      25     1     1     2     0     0  2.397100711E+02  1.777951031E+02  2.305907509E+02  3.973274611E+02  1.250000000E+02  0.00000E+00  9.000E+00
      25     1     1     2     0     0 -2.095726944E+02 -1.580095898E+02  2.032304391E+02  3.547046040E+02  1.250000000E+02  0.00000E+00  9.000E+00
      21     1     1     2   511   502 -3.013737677E+01 -1.978551338E+01  6.740328723E+01  7.643906820E+01  9.536743164E-07  0.00000E+00  9.000E+00
#rwgt            1           1   2.7327801641627823E-002           5       89902           0
</event>
<event>
      5   9999 -3.79277E-02  5.10419E+01 -1.00000E+00  1.38566E-01
      21    -1     0     0   502   512  0.000000000E+00  0.000000000E+00  5.040145748E+02  5.040145748E+02  0.000000000E+00  0.00000E+00  9.000E+00
      21    -1     0     0   501   502  0.000000000E+00  0.000000000E+00 -1.641522786E+02  1.641522786E+02  0.000000000E+00  0.00000E+00  9.000E+00
      25     1     1     2     0     0  1.552022714E+02 -9.071478034E+01  1.604657674E+02  2.714611923E+02  1.250000000E+02  0.00000E+00  9.000E+00
      25     1     1     2     0     0 -2.057091312E+02  8.334344180E+01  5.271428744E+01  2.601272229E+02  1.250000000E+02  0.00000E+00  9.000E+00
      21     1     1     2   501   512  5.050685985E+01  7.371338535E+00  1.266822414E+02  1.365784383E+02  1.348699152E-06  0.00000E+00  9.000E+00
#rwgt            1           1  -5.1686602862531739E-002           5       90027           0
</event>
<event>
      5   9999  3.79277E-02  3.04375E+01 -1.00000E+00  1.52604E-01
      21    -1     0     0   511   501  0.000000000E+00  0.000000000E+00  1.125172320E+03  1.125172320E+03  0.000000000E+00  0.00000E+00  9.000E+00
      21    -1     0     0   501   502  0.000000000E+00  0.000000000E+00 -5.024256241E+01  5.024256241E+01  0.000000000E+00  0.00000E+00  9.000E+00
      25     1     1     2     0     0 -4.267678255E+01  1.421071296E+02  2.444602801E+02  3.120922502E+02  1.250000000E+02  0.00000E+00  9.000E+00
      25     1     1     2     0     0  7.288568147E+01 -1.383835603E+02  6.446447733E+02  6.750216412E+02  1.250000000E+02  0.00000E+00  9.000E+00
      21     1     1     2   511   502 -3.020889893E+01 -3.723569310E+00  1.858247041E+02  1.883009910E+02  3.814697266E-06  0.00000E+00  9.000E+00
#rwgt            1           1   3.3744677563023420E-002           5       90223           0
</event>
<event>
      5   9999  3.79277E-02  9.72069E+01 -1.00000E+00  1.24384E-01
      21    -1     0     0   502   512  0.000000000E+00  0.000000000E+00  4.588064476E+02  4.588064476E+02  0.000000000E+00  0.00000E+00  9.000E+00
      21    -1     0     0   501   502  0.000000000E+00  0.000000000E+00 -2.767214047E+02  2.767214047E+02  0.000000000E+00  0.00000E+00  9.000E+00
      25     1     1     2     0     0  1.087011025E+02 -1.489997818E+01  1.031357150E+02  1.957036400E+02  1.250000000E+02  0.00000E+00  9.000E+00
      25     1     1     2     0     0 -4.293632003E+01  8.648337426E+01 -1.939500986E+02  2.501290514E+02  1.250000000E+02  0.00000E+00  9.000E+00
      21     1     1     2   501   512 -6.576478243E+01 -7.158339608E+01  2.728994266E+02  2.896951609E+02  3.814697266E-06  0.00000E+00  9.000E+00
#rwgt            1           1   4.6057312305846081E-002           5       90366           0
</event>
<event>
      5   9999  3.79277E-02  2.99243E+01 -1.00000E+00  1.53116E-01
      21    -1     0     0   502   501  0.000000000E+00  0.000000000E+00  1.303885992E+02  1.303885992E+02  0.000000000E+00  0.00000E+00  9.000E+00
      21    -1     0     0   501   511  0.000000000E+00  0.000000000E+00 -7.740952527E+02  7.740952527E+02  0.000000000E+00  0.00000E+00  9.000E+00
      25     1     1     2     0     0 -1.709896508E+02 -1.151026106E+02 -2.179087312E+02  3.249542842E+02  1.250000000E+02  0.00000E+00  9.000E+00
      25     1     1     2     0     0  1.581110320E+02  8.809142441E+01 -8.249467624E+01  2.349246030E+02  1.250000000E+02  0.00000E+00  9.000E+00
      21     1     1     2   502   511  1.287861885E+01  2.701118621E+01 -3.433032461E+02  3.446049648E+02  3.814697266E-06  0.00000E+00  9.000E+00
#rwgt            1           1   3.2829232801563350E-002           5       90410           0
</event>
<event>
      5   9999  3.79277E-02  3.66641E+01 -1.00000E+00  1.47225E-01
      21    -1     0     0   502   501  0.000000000E+00  0.000000000E+00  3.383692304E+02  3.383692304E+02  0.000000000E+00  0.00000E+00  9.000E+00
      21    -1     0     0   512   502  0.000000000E+00  0.000000000E+00 -3.415172793E+02  3.415172793E+02  0.000000000E+00  0.00000E+00  9.000E+00
      25     1     1     2     0     0  1.021923962E+02  1.734667512E+02  1.872842117E+02  3.020502865E+02  1.250000000E+02  0.00000E+00  9.000E+00
      25     1     1     2     0     0 -1.305356377E+02 -1.967243771E+02 -1.089871708E+02  2.885190403E+02  1.250000000E+02  0.00000E+00  9.000E+00
      21     1     1     2   512   501  2.834324149E+01  2.325762585E+01 -8.144508988E+01  8.931718291E+01  0.000000000E+00  0.00000E+00  9.000E+00
#rwgt            1           1   3.8399857591261494E-002           5       90540           0
</event>
<event>
      5   9999  3.79277E-02  3.91891E+01 -1.00000E+00  1.45394E-01
      21    -1     0     0   511   501  0.000000000E+00  0.000000000E+00  8.720604282E+02  8.720604282E+02  0.000000000E+00  0.00000E+00  9.000E+00
      21    -1     0     0   501   502  0.000000000E+00  0.000000000E+00 -1.405114112E+02  1.405114112E+02  0.000000000E+00  0.00000E+00  9.000E+00
      25     1     1     2     0     0 -1.936733050E+02 -1.394051561E+02  1.013126891E+02  2.878061979E+02  1.250000000E+02  0.00000E+00  9.000E+00
      25     1     1     2     0     0  1.591463966E+02  1.208665245E+02  2.541065749E+02  3.465998323E+02  1.250000000E+02  0.00000E+00  9.000E+00
      21     1     1     2   511   502  3.452690838E+01  1.853863155E+01  3.761297529E+02  3.781658092E+02  7.629394531E-06  0.00000E+00  9.000E+00
#rwgt            1           1   3.3857628685731854E-002           5       90796           0
</event>
<event>
      5   9999  3.79277E-02  2.46081E+01 -1.00000E+00  1.59267E-01
      21    -1     0     0   502   501  0.000000000E+00  0.000000000E+00  2.665287934E+02  2.665287934E+02  0.000000000E+00  0.00000E+00  9.000E+00
      21    -1     0     0   512   502  0.000000000E+00  0.000000000E+00 -3.841480115E+02  3.841480115E+02  0.000000000E+00  0.00000E+00  9.000E+00
      25     1     1     2     0     0 -1.649387169E+02 -2.083838655E+02  2.657501208E+01  2.948895505E+02  1.250000000E+02  0.00000E+00  9.000E+00
      25     1     1     2     0     0  1.869486271E+02  1.973783351E+02 -1.237744318E+02  3.238102937E+02  1.250000000E+02  0.00000E+00  9.000E+00
      21     1     1     2   512   501 -2.200991022E+01  1.100553037E+01 -2.041979837E+01  3.197696065E+01  3.371747881E-07  0.00000E+00  9.000E+00
#rwgt            1           1   6.1602630727586961E-002           5       90941           0
</event>
<event>
      5   9999  3.79277E-02  1.05588E+02 -1.00000E+00  1.22775E-01
      21    -1     0     0   502   511  0.000000000E+00  0.000000000E+00  5.609307688E+02  5.609307688E+02  0.000000000E+00  0.00000E+00  9.000E+00
      21    -1     0     0   501   502  0.000000000E+00  0.000000000E+00 -2.529535299E+02  2.529535299E+02  0.000000000E+00  0.00000E+00  9.000E+00
      25     1     1     2     0     0 -2.275243378E+02 -1.710170964E+01 -4.185620557E+01  2.635085097E+02  1.250000000E+02  0.00000E+00  9.000E+00
      25     1     1     2     0     0  1.453861808E+02 -4.924708734E+01  1.413348544E+01  1.984620180E+02  1.250000000E+02  0.00000E+00  9.000E+00
      21     1     1     2   501   511  8.213815697E+01  6.634879698E+01  3.356999591E+02  3.519137710E+02  6.607249480E-06  0.00000E+00  9.000E+00
#rwgt            1           1   4.5669207087554842E-002           5       91124           0
</event>
<event>
      5   9999  3.79277E-02  6.23243E+01 -1.00000E+00  1.33827E-01
      21    -1     0     0   502   501  0.000000000E+00  0.000000000E+00  7.805939611E+01  7.805939611E+01  0.000000000E+00  0.00000E+00  9.000E+00
      21    -1     0     0   512   502  0.000000000E+00  0.000000000E+00 -7.993811573E+02  7.993811573E+02  0.000000000E+00  0.00000E+00  9.000E+00
      25     1     1     2     0     0  7.812377885E+01 -8.967989355E+01 -3.813951889E+02  4.186085262E+02  1.250000000E+02  0.00000E+00  9.000E+00
      25     1     1     2     0     0 -1.639643288E+01  9.828495025E+01 -5.792686358E+01  1.700273389E+02  1.250000000E+02  0.00000E+00  9.000E+00
      21     1     1     2   512   501 -6.172734597E+01 -8.605056707E+00 -2.819997087E+02  2.888046882E+02  3.814697266E-06  0.00000E+00  9.000E+00
#rwgt            1           1   3.2278623148989917E-002           5       91190           0
</event>
<event>
      5   9999  3.79277E-02  5.56009E+00 -1.00000E+00  2.30733E-01
      21    -1     0     0   502   501  0.000000000E+00  0.000000000E+00  3.767300345E+01  3.767300345E+01  0.000000000E+00  0.00000E+00  9.000E+00
      -3    -1     0     0     0   502  0.000000000E+00  0.000000000E+00 -9.811986448E+02  9.811986448E+02  0.000000000E+00  0.00000E+00  9.000E+00
      25     1     1     2     0     0 -2.372036484E+01  1.286131746E+02 -4.042580985E+02  4.428923284E+02  1.250000000E+02  0.00000E+00  9.000E+00
      25     1     1     2     0     0  2.137779985E+01 -1.235706517E+02 -4.100977517E+02  4.466899174E+02  1.250000000E+02  0.00000E+00  9.000E+00
      -3     1     1     2     0   501  2.342564995E+00 -5.042522869E+00 -1.291697911E+02  1.292894025E+02  3.303624740E-06  0.00000E+00  9.000E+00
#rwgt            1           1   4.7582061920419201E-002           5       91306           0
</event>
<event>
      5   9999  3.79277E-02  7.10418E+01 -1.00000E+00  1.30897E-01
      21    -1     0     0   502   501  0.000000000E+00  0.000000000E+00  2.918902036E+02  2.918902036E+02  0.000000000E+00  0.00000E+00  9.000E+00
      21    -1     0     0   511   502  0.000000000E+00  0.000000000E+00 -5.895871972E+02  5.895871972E+02  0.000000000E+00  0.00000E+00  9.000E+00
      25     1     1     2     0     0 -6.658137964E+01 -1.785427795E+02  1.718300586E+02  2.854140383E+02  1.250000000E+02  0.00000E+00  9.000E+00
      25     1     1     2     0     0  1.359145131E+02  1.630557338E+02 -1.999345016E+02  3.172676033E+02  1.250000000E+02  0.00000E+00  9.000E+00
      21     1     1     2   511   501 -6.933313346E+01  1.548704576E+01 -2.695925506E+02  2.787957591E+02  0.000000000E+00  0.00000E+00  9.000E+00
#rwgt            1           1   3.6349397904194836E-002           5       91649           0
</event>
<event>
      5   9999  3.79277E-02  1.63535E+02 -1.00000E+00  1.14926E-01
      21    -1     0     0   502   501  0.000000000E+00  0.000000000E+00  2.169256540E+02  2.169256540E+02  0.000000000E+00  0.00000E+00  9.000E+00
       2    -1     0     0   501     0  0.000000000E+00  0.000000000E+00 -8.141516590E+02  8.141516590E+02  0.000000000E+00  0.00000E+00  9.000E+00
      25     1     1     2     0     0 -1.910036287E+02  4.973448828E+01  3.521606451E+00  2.336521072E+02  1.250000000E+02  0.00000E+00  9.000E+00
      25     1     1     2     0     0  7.843296999E+01  6.888864331E+01  1.193441676E+01  1.632936198E+02  1.250000000E+02  0.00000E+00  9.000E+00
       2     1     1     2   502     0  1.125706587E+02 -1.186231316E+02 -6.126820282E+02  6.341315859E+02  0.000000000E+00  0.00000E+00  9.000E+00
#rwgt            1           1   5.0477745293514072E-002           5       91800           0
</event>
<event>
      5   9999  3.79277E-02  1.85953E+01 -1.00000E+00  1.69022E-01
      21    -1     0     0   502   501  0.000000000E+00  0.000000000E+00  1.124805732E+02  1.124805732E+02  0.000000000E+00  0.00000E+00  9.000E+00
      21    -1     0     0   511   502  0.000000000E+00  0.000000000E+00 -1.221279473E+03  1.221279473E+03  0.000000000E+00  0.00000E+00  9.000E+00
      25     1     1     2     0     0 -3.165904744E+02  3.099651277E+01 -5.161574895E+02  6.190588553E+02  1.250000000E+02  0.00000E+00  9.000E+00
      25     1     1     2     0     0  3.334815759E+02 -3.877308668E+01 -4.715866674E+02  5.922265602E+02  1.250000000E+02  0.00000E+00  9.000E+00
      21     1     1     2   511   501 -1.689110156E+01  7.776573909E+00 -1.210547428E+02  1.224746307E+02  1.348699152E-06  0.00000E+00  9.000E+00
#rwgt            1           1   4.2435037272288360E-002           5       92002           0
</event>
<event>
      5   9999  3.79277E-02  8.19646E+01 -1.00000E+00  1.27842E-01
      21    -1     0     0   502   501  0.000000000E+00  0.000000000E+00  6.499870221E+02  6.499870221E+02  0.000000000E+00  0.00000E+00  9.000E+00
      21    -1     0     0   512   502  0.000000000E+00  0.000000000E+00 -1.267404506E+02  1.267404506E+02  0.000000000E+00  0.00000E+00  9.000E+00
      25     1     1     2     0     0  1.022273884E+02 -2.228492758E+02  3.170822076E+02  4.198551715E+02  1.250000000E+02  0.00000E+00  9.000E+00
      25     1     1     2     0     0 -8.942142656E+01  1.418912364E+02  1.427991341E+02  2.532704231E+02  1.250000000E+02  0.00000E+00  9.000E+00
      21     1     1     2   512   501 -1.280596183E+01  8.095803939E+01  6.336522983E+01  1.036018781E+02  2.431401974E-06  0.00000E+00  9.000E+00
#rwgt            1           1   3.9565509823052201E-002           5       92201           0
</event>
<event>
      5   9999  3.79277E-02  4.17155E+01 -1.00000E+00  1.43718E-01
      21    -1     0     0   502   501  0.000000000E+00  0.000000000E+00  5.926434368E+02  5.926434368E+02  0.000000000E+00  0.00000E+00  9.000E+00
      21    -1     0     0   511   502  0.000000000E+00  0.000000000E+00 -1.967395579E+02  1.967395579E+02  0.000000000E+00  0.00000E+00  9.000E+00
      25     1     1     2     0     0  1.909310423E+02 -2.078094288E+02  4.442747248E+01  3.118304378E+02  1.250000000E+02  0.00000E+00  9.000E+00
      25     1     1     2     0     0 -1.662118317E+02  1.742066525E+02  3.386368231E+02  4.339057833E+02  1.250000000E+02  0.00000E+00  9.000E+00
      21     1     1     2   511   501 -2.471921060E+01  3.360277636E+01  1.283958328E+01  4.364677366E+01  5.331201500E-07  0.00000E+00  9.000E+00
#rwgt            1           1   3.0784549300506291E-002           5       92305           0
</event>
<event>
      5   9999  3.79277E-02  4.18597E+01 -1.00000E+00  1.43627E-01
      21    -1     0     0   502   501  0.000000000E+00  0.000000000E+00  5.596810810E+02  5.596810810E+02  0.000000000E+00  0.00000E+00  9.000E+00
      21    -1     0     0   501   512  0.000000000E+00  0.000000000E+00 -1.404787347E+02  1.404787347E+02  0.000000000E+00  0.00000E+00  9.000E+00
      25     1     1     2     0     0 -1.791327100E+02 -4.855804818E+01  4.039626609E+01  2.273835310E+02  1.250000000E+02  0.00000E+00  9.000E+00
      25     1     1     2     0     0  1.374671471E+02  4.453080741E+01  3.856271948E+02  4.303644302E+02  1.250000000E+02  0.00000E+00  9.000E+00
      21     1     1     2   502   512  4.166556292E+01  4.027240769E+00 -6.821114702E+00  4.241185457E+01  5.960464478E-07  0.00000E+00  9.000E+00
#rwgt            1           1   1.4976246595875958E-002           5       92473           0
</event>
<event>
      5   9999  3.79277E-02  6.74538E+01 -1.00000E+00  1.32041E-01
      21    -1     0     0   502   501  0.000000000E+00  0.000000000E+00  5.939283816E+02  5.939283816E+02  0.000000000E+00  0.00000E+00  9.000E+00
      -3    -1     0     0     0   502  0.000000000E+00  0.000000000E+00 -1.089416677E+03  1.089416677E+03  0.000000000E+00  0.00000E+00  9.000E+00
      25     1     1     2     0     0  2.150338744E+02 -1.865302494E+02  2.316518751E+02  3.877121256E+02  1.250000000E+02  0.00000E+00  9.000E+00
      25     1     1     2     0     0 -1.486501912E+02  1.745626620E+02  2.228191513E+02  3.432817742E+02  1.250000000E+02  0.00000E+00  9.000E+00
      -3     1     1     2     0   501 -6.638368318E+01  1.196758745E+01 -9.499593223E+02  9.523511593E+02  1.078959322E-05  0.00000E+00  9.000E+00
#rwgt            1           1  0.20018781025695381                5       92592           0
</event>
<event>
      5   9999  3.79277E-02  7.17307E+01 -1.00000E+00  1.30686E-01
      21    -1     0     0   502   501  0.000000000E+00  0.000000000E+00  7.207386955E+02  7.207386955E+02  0.000000000E+00  0.00000E+00  9.000E+00
      21    -1     0     0   501   511  0.000000000E+00  0.000000000E+00 -1.640915564E+02  1.640915564E+02  0.000000000E+00  0.00000E+00  9.000E+00
      25     1     1     2     0     0  9.087141465E+01  1.149745715E+02  2.013266612E+02  2.786291273E+02  1.250000000E+02  0.00000E+00  9.000E+00
      25     1     1     2     0     0 -1.086451541E+02 -4.548076457E+01  4.533146463E+02  4.847591546E+02  1.250000000E+02  0.00000E+00  9.000E+00
      21     1     1     2   502   511  1.777373944E+01 -6.949380691E+01 -9.799416839E+01  1.214419699E+02  2.336015456E-06  0.00000E+00  9.000E+00
#rwgt            1           1   3.6306425811820454E-002           5       92733           0
</event>
<event>
      5   9999  3.79277E-02  8.70806E+01 -1.00000E+00  1.26592E-01
       2    -1     0     0   502     0  0.000000000E+00  0.000000000E+00  2.736064369E+03  2.736064369E+03  0.000000000E+00  0.00000E+00  9.000E+00
      21    -1     0     0   501   502  0.000000000E+00  0.000000000E+00 -2.467398069E+02  2.467398069E+02  0.000000000E+00  0.00000E+00  9.000E+00
      25     1     1     2     0     0 -2.808749447E+02 -2.751552290E+02  5.324744652E+01  4.160065206E+02  1.250000000E+02  0.00000E+00  9.000E+00
      25     1     1     2     0     0  3.049120775E+02  1.914578992E+02  4.996463113E+02  6.284098492E+02  1.250000000E+02  0.00000E+00  9.000E+00
       2     1     1     2   501     0 -2.403713281E+01  8.369732980E+01  1.936430804E+03  1.938387806E+03  2.157918644E-05  0.00000E+00  9.000E+00
#rwgt            1           1   2.5990729079325904E-002           5       92789           0
</event>
<event>
      5   9999  3.79277E-02  3.15717E+01 -1.00000E+00  1.51515E-01
      21    -1     0     0   502   501  0.000000000E+00  0.000000000E+00  1.049223280E+03  1.049223280E+03  0.000000000E+00  0.00000E+00  9.000E+00
      21    -1     0     0   511   502  0.000000000E+00  0.000000000E+00 -6.939582695E+01  6.939582695E+01  0.000000000E+00  0.00000E+00  9.000E+00
      25     1     1     2     0     0 -1.105359337E+02  4.596207433E+01  8.179746892E+02  8.360851016E+02  1.250000000E+02  0.00000E+00  9.000E+00
      25     1     1     2     0     0  1.078339457E+02 -1.450617400E+01  1.811613017E+02  2.455259786E+02  1.250000000E+02  0.00000E+00  9.000E+00
      21     1     1     2   511   501  2.701988048E+00 -3.145590033E+01 -1.930853794E+01  3.700802673E+01  1.283923342E-06  0.00000E+00  9.000E+00
#rwgt            1           1   5.8451224986831002E-002           5       92933           0
</event>
<event>
      5   9999  3.79277E-02  2.22345E+01 -1.00000E+00  1.62661E-01
      21    -1     0     0   512   501  0.000000000E+00  0.000000000E+00  2.913172170E+02  2.913172170E+02  0.000000000E+00  0.00000E+00  9.000E+00
      21    -1     0     0   501   502  0.000000000E+00  0.000000000E+00 -2.527377095E+02  2.527377095E+02  0.000000000E+00  0.00000E+00  9.000E+00
      25     1     1     2     0     0 -1.580179172E+02 -6.175787907E+01 -5.267892287E+01  2.172182467E+02  1.250000000E+02  0.00000E+00  9.000E+00
      25     1     1     2     0     0  1.790030876E+02  6.910600924E+01 -3.978831840E+00  2.290383745E+02  1.250000000E+02  0.00000E+00  9.000E+00
      21     1     1     2   512   502 -2.098517040E+01 -7.348130174E+00  9.523726225E+01  9.779830528E+01  0.000000000E+00  0.00000E+00  9.000E+00
#rwgt            1           1   4.4851931758170906E-002           5       93151           0
</event>
<event>
      5   9999  3.79277E-02  6.55133E+01 -1.00000E+00  1.32694E-01
      21    -1     0     0   502   501  0.000000000E+00  0.000000000E+00  5.616109897E+01  5.616109897E+01  0.000000000E+00  0.00000E+00  9.000E+00
      21    -1     0     0   501   511  0.000000000E+00  0.000000000E+00 -2.108701750E+03  2.108701750E+03  0.000000000E+00  0.00000E+00  9.000E+00
      25     1     1     2     0     0 -2.431898840E+01 -5.204356228E+01 -1.748010571E+03  1.753415496E+03  1.250000000E+02  0.00000E+00  9.000E+00
      25     1     1     2     0     0 -4.113408088E+01  4.923470881E+01 -5.081366424E+01  1.494091618E+02  1.250000000E+02  0.00000E+00  9.000E+00
      21     1     1     2   502   511  6.545306927E+01  2.808853468E+00 -2.537164156E+02  2.620381909E+02  4.672030912E-06  0.00000E+00  9.000E+00
#rwgt            1           1   3.6818208849282323E-002           5       93392           0
</event>
<event>
      5   9999  3.79277E-02  1.23780E+01 -1.00000E+00  1.85623E-01
      21    -1     0     0   502   501  0.000000000E+00  0.000000000E+00  1.074878553E+03  1.074878553E+03  0.000000000E+00  0.00000E+00  9.000E+00
      21    -1     0     0   512   502  0.000000000E+00  0.000000000E+00 -5.151293536E+01  5.151293536E+01  0.000000000E+00  0.00000E+00  9.000E+00
      25     1     1     2     0     0  3.826582652E+01 -6.170781585E+01  1.971033213E+02  2.444316823E+02  1.250000000E+02  0.00000E+00  9.000E+00
      25     1     1     2     0     0 -5.028791113E+01  6.465486683E+01  8.457615156E+02  8.588635905E+02  1.250000000E+02  0.00000E+00  9.000E+00
      21     1     1     2   512   501  1.202208461E+01 -2.947050981E+00 -1.949921922E+01  2.309621567E+01  1.348699152E-06  0.00000E+00  9.000E+00
#rwgt            1           1   4.8935719517641564E-002           5       93582           0
</event>
<event>
      5   9999  3.79277E-02  1.77568E+01 -1.00000E+00  1.70748E-01
      21    -1     0     0   502   501  0.000000000E+00  0.000000000E+00  2.211855887E+02  2.211855887E+02  0.000000000E+00  0.00000E+00  9.000E+00
      21    -1     0     0   511   502  0.000000000E+00  0.000000000E+00 -2.190963628E+02  2.190963628E+02  0.000000000E+00  0.00000E+00  9.000E+00
      25     1     1     2     0     0 -3.857301859E+01 -1.451221752E+02 -4.911184846E+01  2.014579290E+02  1.250000000E+02  0.00000E+00  9.000E+00
      25     1     1     2     0     0  4.068455719E+01  1.627530145E+02  6.179714701E+01  2.181459702E+02  1.250000000E+02  0.00000E+00  9.000E+00
      21     1     1     2   511   501 -2.111538606E+00 -1.763083935E+01 -1.059607270E+01  2.067805232E+01  4.616955931E-07  0.00000E+00  9.000E+00
#rwgt            1           1   4.1044474450291975E-002           5       93814           0
</event>
<event>
      5   9999  3.79277E-02  1.16063E+02 -1.00000E+00  1.20986E-01
      21    -1     0     0   502   501  0.000000000E+00  0.000000000E+00  1.608416661E+03  1.608416661E+03  0.000000000E+00  0.00000E+00  9.000E+00
      -1    -1     0     0     0   502  0.000000000E+00  0.000000000E+00 -1.399678973E+02  1.399678973E+02  0.000000000E+00  0.00000E+00  9.000E+00
      25     1     1     2     0     0 -3.023771409E+01 -5.958192298E+01  1.288970948E+02  1.915823216E+02  1.250000000E+02  0.00000E+00  9.000E+00
      25     1     1     2     0     0  9.260036493E+01 -3.830347444E+01  1.411292386E+03  1.420356710E+03  1.250000000E+02  0.00000E+00  9.000E+00
      -1     1     1     2     0   501 -6.236265084E+01  9.788539741E+01 -7.174071738E+01  1.364455268E+02  4.473129043E-06  0.00000E+00  9.000E+00
#rwgt            1           1   5.1491085447027983E-002           5       94127           0
</event>
<event>
      5   9999 -3.79277E-02  7.04005E+01 -1.00000E+00  1.31095E-01
      21    -1     0     0   502   511  0.000000000E+00  0.000000000E+00  1.477635075E+02  1.477635075E+02  0.000000000E+00  0.00000E+00  9.000E+00
      21    -1     0     0   501   502  0.000000000E+00  0.000000000E+00 -6.188104131E+02  6.188104131E+02  0.000000000E+00  0.00000E+00  9.000E+00
      25     1     1     2     0     0 -1.470291674E+02 -1.792096964E+02 -1.043646944E+02  2.832855110E+02  1.250000000E+02  0.00000E+00  9.000E+00
      25     1     1     2     0     0  8.186856112E+01  1.525578708E+02 -3.514791921E+02  4.112651063E+02  1.250000000E+02  0.00000E+00  9.000E+00
      21     1     1     2   501   511  6.516060625E+01  2.665182552E+01 -1.520301913E+01  7.202330318E+01  1.545128989E-06  0.00000E+00  9.000E+00
#rwgt            1           1 -0.10181466666471116                5       94170           0
</event>
<event>
      5   9999  3.79277E-02  4.11120E+01 -1.00000E+00  1.44105E-01
       1    -1     0     0   502     0  0.000000000E+00  0.000000000E+00  8.798131675E+02  8.798131675E+02  0.000000000E+00  0.00000E+00  9.000E+00
      21    -1     0     0   501   502  0.000000000E+00  0.000000000E+00 -1.243160770E+02  1.243160770E+02  0.000000000E+00  0.00000E+00  9.000E+00
      25     1     1     2     0     0 -5.136662985E+01  6.662010149E+01  8.102813611E+01  1.710769635E+02  1.250000000E+02  0.00000E+00  9.000E+00
      25     1     1     2     0     0  6.333336068E+01 -2.728825139E+01 -1.391865716E+01  1.434381130E+02  1.250000000E+02  0.00000E+00  9.000E+00
       1     1     1     2   501     0 -1.196673083E+01 -3.933185010E+01  6.883876116E+02  6.896141681E+02  1.078959322E-05  0.00000E+00  9.000E+00
#rwgt            1           1   7.0990552152637915E-002           5       94249           0
</event>
<event>
      5   9999  3.79277E-02  1.23433E+01 -1.00000E+00  1.85749E-01
      21    -1     0     0   511   501  0.000000000E+00  0.000000000E+00  2.457932378E+02  2.457932378E+02  0.000000000E+00  0.00000E+00  9.000E+00
      21    -1     0     0   501   502  0.000000000E+00  0.000000000E+00 -2.898815746E+02  2.898815746E+02  0.000000000E+00  0.00000E+00  9.000E+00
      25     1     1     2     0     0  1.450988764E+02  5.124294825E+01 -7.122646807E+01  2.106602322E+02  1.250000000E+02  0.00000E+00  9.000E+00
      25     1     1     2     0     0 -1.329261825E+02 -4.919755124E+01 -8.852842327E+01  2.086912810E+02  1.250000000E+02  0.00000E+00  9.000E+00
      21     1     1     2   511   502 -1.217269390E+01 -2.045397011E+00  1.156665545E+02  1.163232993E+02  0.000000000E+00  0.00000E+00  9.000E+00
#rwgt            1           1   3.7860691860138317E-002           5       94327           0
</event>
<event>
      5   9999  3.79277E-02  4.89984E+01 -1.00000E+00  1.39579E-01
      21    -1     0     0   502   501  0.000000000E+00  0.000000000E+00  1.321561828E+03  1.321561828E+03  0.000000000E+00  0.00000E+00  9.000E+00
      21    -1     0     0   501   512  0.000000000E+00  0.000000000E+00 -1.432348391E+02  1.432348391E+02  0.000000000E+00  0.00000E+00  9.000E+00
      25     1     1     2     0     0  2.270018614E+02 -1.910576069E+02  6.885931405E+02  7.601436492E+02  1.250000000E+02  0.00000E+00  9.000E+00
      25     1     1     2     0     0 -2.439881918E+02  1.450977821E+02  5.472840565E+02  6.290695054E+02  1.250000000E+02  0.00000E+00  9.000E+00
      21     1     1     2   502   512  1.698633039E+01  4.595982476E+01 -5.755020816E+01  7.558351256E+01  9.536743164E-07  0.00000E+00  9.000E+00
#rwgt            1           1   3.0883737281258653E-002           5       94701           0
</event>
<event>
      5   9999  3.79277E-02  5.56644E+01 -1.00000E+00  1.36467E-01
      21    -1     0     0   502   501  0.000000000E+00  0.000000000E+00  7.194420181E+02  7.194420181E+02  0.000000000E+00  0.00000E+00  9.000E+00
      21    -1     0     0   511   502  0.000000000E+00  0.000000000E+00 -1.087836479E+02  1.087836479E+02  0.000000000E+00  0.00000E+00  9.000E+00
      25     1     1     2     0     0  1.610955117E+02  5.337848815E+01  3.857224694E+02  4.395541495E+02  1.250000000E+02  0.00000E+00  9.000E+00
      25     1     1     2     0     0 -1.112845250E+02 -2.853117357E+01  2.687150918E+02  3.178538562E+02  1.250000000E+02  0.00000E+00  9.000E+00
      21     1     1     2   511   501 -4.981098670E+01 -2.484731457E+01 -4.377919106E+01  7.081766028E+01  1.430511475E-06  0.00000E+00  9.000E+00
#rwgt            2          11   1.0983074676263124E-003           5       94822           0
</event>
<event>
      5   9999 -3.79277E-02  1.84576E+02 -1.00000E+00  1.12932E-01
      21    -1     0     0   512   501  0.000000000E+00  0.000000000E+00  1.076870215E+02  1.076870215E+02  0.000000000E+00  0.00000E+00  9.000E+00
      21    -1     0     0   501   502  0.000000000E+00  0.000000000E+00 -1.589880009E+03  1.589880009E+03  0.000000000E+00  0.00000E+00  9.000E+00
      25     1     1     2     0     0  9.339277628E+01 -1.193721836E+01 -5.158640661E+01  1.647751959E+02  1.250000000E+02  0.00000E+00  9.000E+00
      25     1     1     2     0     0 -2.650498776E+02  7.977626559E+01 -1.197742926E+03  1.235649144E+03  1.250000000E+02  0.00000E+00  9.000E+00
      21     1     1     2   512   502  1.716571013E+02 -6.783904723E+01 -2.328636550E+02  2.971426906E+02  3.814697266E-06  0.00000E+00  9.000E+00
#rwgt            1           1 -0.16064923024303907                5       95112           0
</event>
<event>
      5   9999  3.79277E-02  4.23546E+01 -1.00000E+00  1.43316E-01
      21    -1     0     0   502   501  0.000000000E+00  0.000000000E+00  1.561571984E+02  1.561571984E+02  0.000000000E+00  0.00000E+00  9.000E+00
      21    -1     0     0   501   511  0.000000000E+00  0.000000000E+00 -5.689362640E+02  5.689362640E+02  0.000000000E+00  0.00000E+00  9.000E+00
      25     1     1     2     0     0 -4.056717892E-01 -6.842595730E+01  8.384109129E+01  1.653378504E+02  1.250000000E+02  0.00000E+00  9.000E+00
      25     1     1     2     0     0  4.207947096E+01  7.598959585E+01 -1.613456742E+02  2.218164266E+02  1.250000000E+02  0.00000E+00  9.000E+00
      21     1     1     2   502   511 -4.167379917E+01 -7.563638549E+00 -3.352744827E+02  3.379391853E+02  5.394796609E-06  0.00000E+00  9.000E+00
#rwgt            2          11   7.9376866065791394E-004           5       95204           0
</event>
<event>
      5   9999  3.79277E-02  3.20612E+01 -1.00000E+00  1.51062E-01
      21    -1     0     0   502   501  0.000000000E+00  0.000000000E+00  4.132139015E+02  4.132139015E+02  0.000000000E+00  0.00000E+00  9.000E+00
      21    -1     0     0   501   512  0.000000000E+00  0.000000000E+00 -7.416631549E+02  7.416631549E+02  0.000000000E+00  0.00000E+00  9.000E+00
      25     1     1     2     0     0 -2.229594295E+02 -5.497161015E+01  1.598157742E+02  3.064292199E+02  1.250000000E+02  0.00000E+00  9.000E+00
      25     1     1     2     0     0  2.480520059E+02  3.501457591E+01  7.054659444E+01  2.887172321E+02  1.250000000E+02  0.00000E+00  9.000E+00
      21     1     1     2   502   512 -2.509257640E+01  1.995703424E+01 -5.588116220E+02  5.597306044E+02  0.000000000E+00  0.00000E+00  9.000E+00
#rwgt            1           1   4.0708409352892029E-002           5       95359           0
</event>
<event>
      5   9999  3.79277E-02  3.70289E+01 -1.00000E+00  1.46950E-01
      21    -1     0     0   511   501  0.000000000E+00  0.000000000E+00  3.579832310E+01  3.579832310E+01  0.000000000E+00  0.00000E+00  9.000E+00
      21    -1     0     0   501   502  0.000000000E+00  0.000000000E+00 -1.927019366E+03  1.927019366E+03  0.000000000E+00  0.00000E+00  9.000E+00
      25     1     1     2     0     0 -1.440242717E+02  1.639725804E+02 -7.020539396E+02  7.457444147E+02  1.250000000E+02  0.00000E+00  9.000E+00
      25     1     1     2     0     0  1.231038413E+02 -1.334197129E+02 -1.061669644E+03  1.084307525E+03  1.250000000E+02  0.00000E+00  9.000E+00
      21     1     1     2   511   502  2.092043033E+01 -3.055286754E+01 -1.274974599E+02  1.327657501E+02  0.000000000E+00  0.00000E+00  9.000E+00
#rwgt            1           1   2.7963572650301412E-002           5       95522           0
</event>
<event>
      5   9999  3.79277E-02  1.31890E+02 -1.00000E+00  1.18652E-01
      21    -1     0     0   512   501  0.000000000E+00  0.000000000E+00  1.916022225E+02  1.916022225E+02  0.000000000E+00  0.00000E+00  9.000E+00
      21    -1     0     0   501   502  0.000000000E+00  0.000000000E+00 -5.800164035E+02  5.800164035E+02  0.000000000E+00  0.00000E+00  9.000E+00
      25     1     1     2     0     0  5.780621250E+01 -1.217476290E+01 -3.739452237E+02  3.986851056E+02  1.250000000E+02  0.00000E+00  9.000E+00
      25     1     1     2     0     0 -1.721156630E+02  7.796491950E+01  4.032144546E+01  2.301155125E+02  1.250000000E+02  0.00000E+00  9.000E+00
      21     1     1     2   512   502  1.143094505E+02 -6.579015660E+01 -5.479040277E+01  1.428180080E+02  9.536743164E-07  0.00000E+00  9.000E+00
#rwgt            1           1   3.7575918197255406E-002           5       95886           0
</event>
<event>
      5   9999  3.79277E-02  2.99953E+01 -1.00000E+00  1.53045E-01
      21    -1     0     0   502   511  0.000000000E+00  0.000000000E+00  4.561094135E+02  4.561094135E+02  0.000000000E+00  0.00000E+00  9.000E+00
      21    -1     0     0   501   502  0.000000000E+00  0.000000000E+00 -1.831175565E+02  1.831175565E+02  0.000000000E+00  0.00000E+00  9.000E+00
      25     1     1     2     0     0 -9.650464598E+01  1.016019013E+02 -8.722066613E+01  2.070471870E+02  1.250000000E+02  0.00000E+00  9.000E+00
      25     1     1     2     0     0  1.249600972E+02 -1.110890688E+02  3.120840942E+02  3.754694248E+02  1.250000000E+02  0.00000E+00  9.000E+00
      21     1     1     2   501   511 -2.845545126E+01  9.487167513E+00  4.812842901E+01  5.671035825E+01  0.000000000E+00  0.00000E+00  9.000E+00
#rwgt            1           1   3.8500167467997663E-002           5       95950           0
</event>
<event>
      5   9999  3.79277E-02  1.87997E+02 -1.00000E+00  1.12635E-01
      21    -1     0     0   502   501  0.000000000E+00  0.000000000E+00  1.190943884E+02  1.190943884E+02  0.000000000E+00  0.00000E+00  9.000E+00
      21    -1     0     0   512   502  0.000000000E+00  0.000000000E+00 -7.143773655E+02  7.143773655E+02  0.000000000E+00  0.00000E+00  9.000E+00
      25     1     1     2     0     0 -6.055550910E+01  3.242222950E+01 -1.790456459E+02  2.289115855E+02  1.250000000E+02  0.00000E+00  9.000E+00
      25     1     1     2     0     0 -1.905613655E+00 -2.097392017E+02 -1.838251928E+02  3.056319119E+02  1.250000000E+02  0.00000E+00  9.000E+00
      21     1     1     2   512   501  6.246112276E+01  1.773169722E+02 -2.324121384E+02  2.989282565E+02  5.394796609E-06  0.00000E+00  9.000E+00
#rwgt            1           1   3.5291844251651848E-002           5       96068           0
</event>
<event>
      5   9999 -3.79277E-02  1.97531E+01 -1.00000E+00  1.66815E-01
      21    -1     0     0   502   501  0.000000000E+00  0.000000000E+00  3.390559659E+01  3.390559659E+01  0.000000000E+00  0.00000E+00  9.000E+00
      21    -1     0     0   511   502  0.000000000E+00  0.000000000E+00 -8.580053516E+02  8.580053516E+02  0.000000000E+00  0.00000E+00  9.000E+00
      25     1     1     2     0     0  7.437221399E+00  7.198406759E+01 -2.769964293E+02  3.123924457E+02  1.250000000E+02  0.00000E+00  9.000E+00
      25     1     1     2     0     0 -2.710583455E+01 -7.380923412E+01 -3.301992619E+02  3.617168532E+02  1.250000000E+02  0.00000E+00  9.000E+00
      21     1     1     2   511   501  1.966861315E+01  1.825166527E+00 -2.169040638E+02  2.178016494E+02  3.814697266E-06  0.00000E+00  9.000E+00
#rwgt            1           1 -0.19605083642423493                5       96189           0
</event>
<event>
      5   9999  3.79277E-02  2.87443E+02 -1.00000E+00  1.06199E-01
      21    -1     0     0   502   512  0.000000000E+00  0.000000000E+00  5.034725550E+02  5.034725550E+02  0.000000000E+00  0.00000E+00  9.000E+00
      21    -1     0     0   501   502  0.000000000E+00  0.000000000E+00 -4.143354423E+02  4.143354423E+02  0.000000000E+00  0.00000E+00  9.000E+00
      25     1     1     2     0     0 -2.917579858E+02 -3.895199168E+01  9.273064509E+01  3.329623889E+02  1.250000000E+02  0.00000E+00  9.000E+00
      25     1     1     2     0     0  4.747911791E+01  1.904492601E+02 -1.347420314E+02  2.688970107E+02  1.250000000E+02  0.00000E+00  9.000E+00
      21     1     1     2   501   512  2.442788678E+02 -1.514972684E+02  1.311484991E+02  3.159485977E+02  6.031565972E-06  0.00000E+00  9.000E+00
#rwgt            2          11   1.5830550417434679E-003           5       96323           0
</event>
<event>
      5   9999  3.79277E-02  5.54734E+01 -1.00000E+00  1.36549E-01
      21    -1     0     0   502   501  0.000000000E+00  0.000000000E+00  4.081920286E+02  4.081920286E+02  0.000000000E+00  0.00000E+00  9.000E+00
      21    -1     0     0   501   511  0.000000000E+00  0.000000000E+00 -1.556089084E+02  1.556089084E+02  0.000000000E+00  0.00000E+00  9.000E+00
      25     1     1     2     0     0 -2.445776683E+01 -1.439846669E+02 -1.276313816E+00  1.922404631E+02  1.250000000E+02  0.00000E+00  9.000E+00
      25     1     1     2     0     0 -3.066541836E+01  1.502079003E+02  2.457945139E+02  3.155039211E+02  1.250000000E+02  0.00000E+00  9.000E+00
      21     1     1     2   502   511  5.512318519E+01 -6.223233383E+00  8.064920135E+00  5.605655284E+01  9.830249847E-07  0.00000E+00  9.000E+00
#rwgt            1           1   4.1937315020238550E-002           5       96358           0
</event>
<event>
      5   9999  3.79277E-02  6.51864E+01 -1.00000E+00  1.32807E-01
      21    -1     0     0   512   501  0.000000000E+00  0.000000000E+00  4.147068397E+02  4.147068397E+02  0.000000000E+00  0.00000E+00  9.000E+00
      21    -1     0     0   501   502  0.000000000E+00  0.000000000E+00 -1.142695024E+02  1.142695024E+02  0.000000000E+00  0.00000E+00  9.000E+00
      25     1     1     2     0     0  4.933733408E+01 -7.095102747E+01  7.636538964E+01  1.700732006E+02  1.250000000E+02  0.00000E+00  9.000E+00
      25     1     1     2     0     0 -4.038983360E+01  1.355204396E+02  8.846528150E+01  2.084424003E+02  1.250000000E+02  0.00000E+00  9.000E+00
      21     1     1     2   512   502 -8.947500477E+00 -6.456941215E+01  1.356066661E+02  1.504607412E+02  0.000000000E+00  0.00000E+00  9.000E+00
#rwgt            1           1   3.4041252288504256E-002           5       96503           0
</event>
<event>
      5   9999  3.79277E-02  9.36171E+01 -1.00000E+00  1.25130E-01
      21    -1     0     0   502   501  0.000000000E+00  0.000000000E+00  1.781095760E+02  1.781095760E+02  0.000000000E+00  0.00000E+00  9.000E+00
      21    -1     0     0   511   502  0.000000000E+00  0.000000000E+00 -8.027248003E+02  8.027248003E+02  0.000000000E+00  0.00000E+00  9.000E+00
      25     1     1     2     0     0  2.618943790E+01  6.079205576E+01  6.779011895E+01  1.568504413E+02  1.250000000E+02  0.00000E+00  9.000E+00
      25     1     1     2     0     0 -1.193250798E+02 -7.027414379E+01 -7.752869658E+01  2.020213571E+02  1.250000000E+02  0.00000E+00  9.000E+00
      21     1     1     2   511   501  9.313564187E+01  9.482088033E+00 -6.148766466E+02  6.219625779E+02  0.000000000E+00  0.00000E+00  9.000E+00
#rwgt            1           1   3.7117881630079286E-002           5       96607           0
</event>
<event>
      5   9999  3.79277E-02  7.34200E+01 -1.00000E+00  1.30180E-01
      21    -1     0     0   502   512  0.000000000E+00  0.000000000E+00  3.589882150E+01  3.589882150E+01  0.000000000E+00  0.00000E+00  9.000E+00
      21    -1     0     0   501   502  0.000000000E+00  0.000000000E+00 -1.547531950E+03  1.547531950E+03  0.000000000E+00  0.00000E+00  9.000E+00
      25     1     1     2     0     0 -5.148588386E+01 -7.291490263E+01 -2.950405083E+02  3.326278413E+02  1.250000000E+02  0.00000E+00  9.000E+00
      25     1     1     2     0     0 -1.998340012E+01  8.972680885E+01 -1.113384679E+03  1.124144422E+03  1.250000000E+02  0.00000E+00  9.000E+00
      21     1     1     2   501   512  7.146928398E+01 -1.681190621E+01 -1.032079410E+02  1.266585087E+02  1.348699152E-06  0.00000E+00  9.000E+00
#rwgt            1           1   5.9121707402256418E-002           5       96672           0
</event>
<event>
      5   9999  3.79277E-02  1.35938E+02 -1.00000E+00  1.18113E-01
      21    -1     0     0   502   501  0.000000000E+00  0.000000000E+00  2.441578760E+02  2.441578760E+02  0.000000000E+00  0.00000E+00  9.000E+00
       2    -1     0     0   501     0  0.000000000E+00  0.000000000E+00 -5.335649441E+02  5.335649441E+02  0.000000000E+00  0.00000E+00  9.000E+00
      25     1     1     2     0     0 -7.315135660E+01  1.940469345E+02  4.522587540E+01  2.463244072E+02  1.250000000E+02  0.00000E+00  9.000E+00
      25     1     1     2     0     0 -3.430255471E+01 -1.107839592E+02 -3.294255768E-01  1.705135168E+02  1.250000000E+02  0.00000E+00  9.000E+00
       2     1     1     2   502     0  1.074539113E+02 -8.326297532E+01 -3.343035180E+02  3.608848961E+02  5.394796609E-06  0.00000E+00  9.000E+00
#rwgt            1           1   4.1604955136915693E-002           5       96726           0
</event>
<event>
      5   9999  3.79277E-02  3.43047E+01 -1.00000E+00  1.49102E-01
      21    -1     0     0   502   501  0.000000000E+00  0.000000000E+00  1.023338033E+02  1.023338033E+02  0.000000000E+00  0.00000E+00  9.000E+00
      21    -1     0     0   511   502  0.000000000E+00  0.000000000E+00 -1.451291315E+03  1.451291315E+03  0.000000000E+00  0.00000E+00  9.000E+00
      25     1     1     2     0     0  1.648856012E+02 -1.476136524E+02 -1.130115705E+02  2.781612247E+02  1.250000000E+02  0.00000E+00  9.000E+00
      25     1     1     2     0     0 -1.991161009E+02  1.453593250E+02 -1.153718457E+03  1.186367495E+03  1.250000000E+02  0.00000E+00  9.000E+00
      21     1     1     2   511   501  3.423049971E+01  2.254327422E+00 -8.222748387E+01  8.909639839E+01  0.000000000E+00  0.00000E+00  9.000E+00
#rwgt            1           1   8.1520157319341160E-002           5       96776           0
</event>
<event>
      5   9999  3.79277E-02  4.29288E+01 -1.00000E+00  1.42962E-01
      21    -1     0     0   502   512  0.000000000E+00  0.000000000E+00  8.106694434E+02  8.106694434E+02  0.000000000E+00  0.00000E+00  9.000E+00
      21    -1     0     0   501   502  0.000000000E+00  0.000000000E+00 -1.261866715E+02  1.261866715E+02  0.000000000E+00  0.00000E+00  9.000E+00
      25     1     1     2     0     0  1.228726784E+02 -1.368173924E+02  2.938667151E+01  2.242883644E+02  1.250000000E+02  0.00000E+00  9.000E+00
      25     1     1     2     0     0 -9.776950603E+01  1.716413663E+02  5.896742053E+02  6.343187711E+02  1.250000000E+02  0.00000E+00  9.000E+00
      21     1     1     2   501   512 -2.510317232E+01 -3.482397390E+01  6.542189510E+01  7.824897940E+01  9.536743164E-07  0.00000E+00  9.000E+00
#rwgt            1           1   3.2689773655319158E-002           5       96942           0
</event>
<event>
      5   9999  3.79277E-02  1.83152E+02 -1.00000E+00  1.13057E-01
      21    -1     0     0   502   501  0.000000000E+00  0.000000000E+00  6.748006790E+02  6.748006790E+02  0.000000000E+00  0.00000E+00  9.000E+00
       1    -1     0     0   501     0  0.000000000E+00  0.000000000E+00 -8.141908251E+02  8.141908251E+02  0.000000000E+00  0.00000E+00  9.000E+00
      25     1     1     2     0     0  1.380694154E+02  2.480516603E+01  1.316178986E+02  2.294051677E+02  1.250000000E+02  0.00000E+00  9.000E+00
      25     1     1     2     0     0 -1.796766828E+02  1.535578782E+02  4.457543555E+02  5.197938800E+02  1.250000000E+02  0.00000E+00  9.000E+00
       1     1     1     2   502     0  4.160726738E+01 -1.783630442E+02 -7.167624002E+02  7.397924564E+02  7.629394531E-06  0.00000E+00  9.000E+00
#rwgt            2          12   1.5532633291149014E-003           5       97157           0
</event>
<event>
      5   9999  3.79277E-02  4.39367E+01 -1.00000E+00  1.42356E-01
      21    -1     0     0   511   501  0.000000000E+00  0.000000000E+00  3.722297120E+02  3.722297120E+02  0.000000000E+00  0.00000E+00  9.000E+00
      21    -1     0     0   501   502  0.000000000E+00  0.000000000E+00 -1.888239102E+02  1.888239102E+02  0.000000000E+00  0.00000E+00  9.000E+00
      25     1     1     2     0     0 -1.523024908E+02  6.953620715E+01  1.657723406E+02  2.667148322E+02  1.250000000E+02  0.00000E+00  9.000E+00
      25     1     1     2     0     0  1.455647301E+02 -2.611916752E+01 -6.205549349E+01  2.033400743E+02  1.250000000E+02  0.00000E+00  9.000E+00
      21     1     1     2   511   502  6.737760701E+00 -4.341703963E+01  7.968895471E+01  9.099871567E+01  1.907348633E-06  0.00000E+00  9.000E+00
#rwgt            1           1   4.3069989429093056E-002           5       97176           0
</event>
<event>
      5   9999  3.79277E-02  1.64740E+02 -1.00000E+00  1.14803E-01
      21    -1     0     0   502   501  0.000000000E+00  0.000000000E+00  2.059374888E+02  2.059374888E+02  0.000000000E+00  0.00000E+00  9.000E+00
       2    -1     0     0   501     0  0.000000000E+00  0.000000000E+00 -1.514321293E+03  1.514321293E+03  0.000000000E+00  0.00000E+00  9.000E+00
      25     1     1     2     0     0  6.448516741E+01  3.900229543E+01  1.415780011E+02  2.033441572E+02  1.250000000E+02  0.00000E+00  9.000E+00
      25     1     1     2     0     0  5.995865602E+01  6.894660470E+01 -1.848816389E+02  2.411532607E+02  1.250000000E+02  0.00000E+00  9.000E+00
       2     1     1     2   502     0 -1.244438234E+02 -1.079489001E+02 -1.265080166E+03  1.275761364E+03  0.000000000E+00  0.00000E+00  9.000E+00
#rwgt            1           1   4.5222650226341837E-002           5       97308           0
</event>
<event>
      5   9999 -3.79277E-02  1.75075E+02 -1.00000E+00  1.13794E-01
      21    -1     0     0   502   501  0.000000000E+00  0.000000000E+00  4.441542026E+02  4.441542026E+02  0.000000000E+00  0.00000E+00  9.000E+00
       2    -1     0     0   501     0  0.000000000E+00  0.000000000E+00 -8.965583712E+02  8.965583712E+02  0.000000000E+00  0.00000E+00  9.000E+00
      25     1     1     2     0     0 -1.513063742E+02 -4.305857357E+02 -5.353316479E+02  7.144946941E+02  1.250000000E+02  0.00000E+00  9.000E+00
      25     1     1     2     0     0  5.082329615E-01  3.416406035E+02 -9.562992777E+01  3.761497619E+02  1.250000000E+02  0.00000E+00  9.000E+00
       2     1     1     2   502     0  1.507981412E+02  8.894513223E+01  1.785574071E+02  2.500681179E+02  1.907348633E-06  0.00000E+00  9.000E+00
#rwgt            1           1  -3.9310225436691097E-002           5       97351           0
</event>
<event>
      5   9999  3.79277E-02  7.32542E+01 -1.00000E+00  1.30229E-01
      21    -1     0     0   502   501  0.000000000E+00  0.000000000E+00  3.369924422E+02  3.369924422E+02  0.000000000E+00  0.00000E+00  9.000E+00
      21    -1     0     0   501   511  0.000000000E+00  0.000000000E+00 -2.827887217E+02  2.827887217E+02  0.000000000E+00  0.00000E+00  9.000E+00
      25     1     1     2     0     0 -4.795589330E+01 -1.407031122E+02  1.901101072E+02  2.717792971E+02  1.250000000E+02  0.00000E+00  9.000E+00
      25     1     1     2     0     0  1.117666678E+02  1.766804015E+02 -1.254981290E+02  2.740119207E+02  1.250000000E+02  0.00000E+00  9.000E+00
      21     1     1     2   502   511 -6.381077451E+01 -3.597728930E+01 -1.040825766E+01  7.398994605E+01  9.000103993E-07  0.00000E+00  9.000E+00
#rwgt            1           1   3.6979481149890664E-002           5       97416           0
</event>
<event>
      5   9999  3.79277E-02  4.51223E+01 -1.00000E+00  1.41668E-01
      21    -1     0     0   512   501  0.000000000E+00  0.000000000E+00  1.351005055E+02  1.351005055E+02  0.000000000E+00  0.00000E+00  9.000E+00
      21    -1     0     0   501   502  0.000000000E+00  0.000000000E+00 -3.784177126E+02  3.784177126E+02  0.000000000E+00  0.00000E+00  9.000E+00
      25     1     1     2     0     0  1.494130084E+00 -1.171992159E+01 -3.012824781E+02  3.263981014E+02  1.250000000E+02  0.00000E+00  9.000E+00
      25     1     1     2     0     0 -1.740910514E+01 -3.050256665E+01  5.748174764E+01  1.419951930E+02  1.250000000E+02  0.00000E+00  9.000E+00
      21     1     1     2   512   502  1.591497505E+01  4.222248824E+01  4.835233160E-01  4.512492370E+01  6.805566033E-07  0.00000E+00  9.000E+00
#rwgt            1           1   5.9609036296433528E-002           5       97586           0
</event>
<event>
      5   9999  3.79277E-02  4.96821E+01 -1.00000E+00  1.39234E-01
       5    -1     0     0   502     0  0.000000000E+00  0.000000000E+00  1.280148476E+03  1.280148476E+03  0.000000000E+00  0.00000E+00  9.000E+00
      21    -1     0     0   501   502  0.000000000E+00  0.000000000E+00 -1.458907760E+02  1.458907760E+02  0.000000000E+00  0.00000E+00  9.000E+00
      25     1     1     2     0     0 -1.597926322E+02 -2.277074588E+02  4.014313600E+02  5.041393745E+02  1.250000000E+02  0.00000E+00  9.000E+00
      25     1     1     2     0     0  1.979279930E+02  2.595509811E+02  2.340384724E+02  4.206438027E+02  1.250000000E+02  0.00000E+00  9.000E+00
       5     1     1     2   501     0 -3.813536079E+01 -3.184352227E+01  4.987878672E+02  5.012560744E+02  7.629394531E-06  0.00000E+00  9.000E+00
#rwgt            1           1   2.7435443641522780E-002           5       97812           0
</event>
<event>
      5   9999  3.79277E-02  4.23543E+01 -1.00000E+00  1.43316E-01
      21    -1     0     0   502   501  0.000000000E+00  0.000000000E+00  1.139913692E+02  1.139913692E+02  0.000000000E+00  0.00000E+00  9.000E+00
      21    -1     0     0   501   511  0.000000000E+00  0.000000000E+00 -4.664933524E+02  4.664933524E+02  0.000000000E+00  0.00000E+00  9.000E+00
      25     1     1     2     0     0 -9.296086073E+01  7.957734970E+01 -1.048344942E+01  1.752403462E+02  1.250000000E+02  0.00000E+00  9.000E+00
      25     1     1     2     0     0  1.072558643E+02 -3.970826614E+01 -2.314053282E+02  2.867995690E+02  1.250000000E+02  0.00000E+00  9.000E+00
      21     1     1     2   502   511 -1.429500360E+01 -3.986908356E+01 -1.106132055E+02  1.184448065E+02  1.348699152E-06  0.00000E+00  9.000E+00
#rwgt            1           1   4.2234146599469169E-002           5       97934           0
</event>
<event>
      5   9999  3.79277E-02  1.25861E+01 -1.00000E+00  1.84877E-01
      21    -1     0     0   502   501  0.000000000E+00  0.000000000E+00  3.608753064E+01  3.608753064E+01  0.000000000E+00  0.00000E+00  9.000E+00
      21    -1     0     0   512   502  0.000000000E+00  0.000000000E+00 -1.207675755E+03  1.207675755E+03  0.000000000E+00  0.00000E+00  9.000E+00
      25     1     1     2     0     0  1.209750063E+02  2.017026363E+01 -5.195031858E+02  5.482247274E+02  1.250000000E+02  0.00000E+00  9.000E+00
      25     1     1     2     0     0 -1.317739652E+02 -1.370554672E+01 -3.625829111E+02  4.057629694E+02  1.250000000E+02  0.00000E+00  9.000E+00
      21     1     1     2   512   501  1.079895893E+01 -6.464716909E+00 -2.895021278E+02  2.897755892E+02  0.000000000E+00  0.00000E+00  9.000E+00
#rwgt            1           1   4.3177843119306586E-002           5       98031           0
</event>
<event>
      5   9999  3.79277E-02  1.17271E+01 -1.00000E+00  1.88085E-01
      21    -1     0     0   502   511  0.000000000E+00  0.000000000E+00  1.302616589E+02  1.302616589E+02  0.000000000E+00  0.00000E+00  9.000E+00
      21    -1     0     0   501   502  0.000000000E+00  0.000000000E+00 -2.426527679E+02  2.426527679E+02  0.000000000E+00  0.00000E+00  9.000E+00
      25     1     1     2     0     0  3.954581509E+01 -1.049868649E+02 -6.226224373E+01  1.791304002E+02  1.250000000E+02  0.00000E+00  9.000E+00
      25     1     1     2     0     0 -2.943746615E+01  1.109320331E+02 -5.836402270E+01  1.794542826E+02  1.250000000E+02  0.00000E+00  9.000E+00
      21     1     1     2   501   511 -1.010834895E+01 -5.945168224E+00  8.235157505E+00  1.432974399E+01  1.192092896E-07  0.00000E+00  9.000E+00
#rwgt            1           1   3.7444700970614669E-002           5       98336           0
</event>
<event>
      5   9999  3.79277E-02  1.00851E+02 -1.00000E+00  1.23663E-01
      21    -1     0     0   502   501  0.000000000E+00  0.000000000E+00  1.227294909E+02  1.227294909E+02  0.000000000E+00  0.00000E+00  9.000E+00
      21    -1     0     0   501   512  0.000000000E+00  0.000000000E+00 -8.105033756E+02  8.105033756E+02  0.000000000E+00  0.00000E+00  9.000E+00
      25     1     1     2     0     0 -1.985307918E+02  7.094277950E+01 -3.546473970E+02  4.310999065E+02  1.250000000E+02  0.00000E+00  9.000E+00
      25     1     1     2     0     0  1.108071128E+02 -1.206964784E+02 -6.567095951E+01  2.162950094E+02  1.250000000E+02  0.00000E+00  9.000E+00
      21     1     1     2   502   512  8.772367896E+01  4.975369895E+01 -2.674555282E+02  2.858379506E+02  0.000000000E+00  0.00000E+00  9.000E+00
#rwgt            1           1   1.8945406620811876E-002           5       98554           0
</event>
<event>
      5   9999  3.79277E-02  5.08974E+01 -1.00000E+00  1.38636E-01
      21    -1     0     0   502   511  0.000000000E+00  0.000000000E+00  1.617936982E+02  1.617936982E+02  0.000000000E+00  0.00000E+00  9.000E+00
      21    -1     0     0   501   502  0.000000000E+00  0.000000000E+00 -4.191018667E+02  4.191018667E+02  0.000000000E+00  0.00000E+00  9.000E+00
      25     1     1     2     0     0  4.335311196E+01  1.034445678E+02  5.746580028E+01  1.775037721E+02  1.250000000E+02  0.00000E+00  9.000E+00
      25     1     1     2     0     0  2.783476646E+00 -1.249379053E+02 -3.035649809E+02  3.512747152E+02  1.250000000E+02  0.00000E+00  9.000E+00
      21     1     1     2   501   511 -4.613658860E+01  2.149333749E+01 -1.120898784E+01  5.211707755E+01  6.743495762E-07  0.00000E+00  9.000E+00
#rwgt            1           1   3.5583458515215181E-002           5       98638           0
</event>
<event>
      5   9999  3.79277E-02  1.78074E+01 -1.00000E+00  1.70640E-01
      21    -1     0     0   502   501  0.000000000E+00  0.000000000E+00  1.330794335E+03  1.330794335E+03  0.000000000E+00  0.00000E+00  9.000E+00
      21    -1     0     0   512   502  0.000000000E+00  0.000000000E+00 -1.398798122E+03  1.398798122E+03  0.000000000E+00  0.00000E+00  9.000E+00
      25     1     1     2     0     0  1.555189892E+01 -1.291258186E+02  1.022170312E+03  1.037965552E+03  1.250000000E+02  0.00000E+00  9.000E+00
      25     1     1     2     0     0 -1.991416606E+01  1.118610227E+02  2.769425615E+02  3.243942736E+02  1.250000000E+02  0.00000E+00  9.000E+00
      21     1     1     2   512   501  4.362267137E+00  1.726479588E+01 -1.367116661E+03  1.367232631E+03  0.000000000E+00  0.00000E+00  9.000E+00
#rwgt            1           1   4.3629251717521592E-002           5       98746           0
</event>
<event>
      5   9999 -3.79277E-02  8.99822E+00 -1.00000E+00  2.01210E-01
      21    -1     0     0   502   501  0.000000000E+00  0.000000000E+00  1.534841497E+02  1.534841497E+02  0.000000000E+00  0.00000E+00  9.000E+00
      21    -1     0     0   501   511  0.000000000E+00  0.000000000E+00 -2.192481620E+02  2.192481620E+02  0.000000000E+00  0.00000E+00  9.000E+00
      25     1     1     2     0     0 -1.734426855E+01 -9.718039485E+01  5.464106234E+01  1.683909098E+02  1.250000000E+02  0.00000E+00  9.000E+00
      25     1     1     2     0     0  1.379128321E+01  8.891333854E+01 -1.046744128E+02  1.862189947E+02  1.250000000E+02  0.00000E+00  9.000E+00
      21     1     1     2   502   511  3.552985339E+00  8.267056311E+00 -1.573066177E+01  1.812240725E+01  1.685873940E-07  0.00000E+00  9.000E+00
#rwgt            1           1  -6.3199806966842478E-002           5       98963           0
</event>
<event>
      5   9999  3.79277E-02  2.51549E+01 -1.00000E+00  1.58550E-01
      21    -1     0     0   502   501  0.000000000E+00  0.000000000E+00  1.103366264E+02  1.103366264E+02  0.000000000E+00  0.00000E+00  9.000E+00
      21    -1     0     0   512   502  0.000000000E+00  0.000000000E+00 -6.349429824E+02  6.349429824E+02  0.000000000E+00  0.00000E+00  9.000E+00
      25     1     1     2     0     0  8.036493818E+01 -1.686702258E+02 -2.309128600E+02  3.222637387E+02  1.250000000E+02  0.00000E+00  9.000E+00
      25     1     1     2     0     0 -8.258889386E+01  1.937266010E+02 -1.732804501E+02  3.000033929E+02  1.250000000E+02  0.00000E+00  9.000E+00
      21     1     1     2   512   501  2.223955676E+00 -2.505637526E+01 -1.204130459E+02  1.230124772E+02  0.000000000E+00  0.00000E+00  9.000E+00
#rwgt            1           1   3.4081777950448505E-002           5       99377           0
</event>
<event>
      5   9999  3.79277E-02  1.28744E+01 -1.00000E+00  1.83873E-01
      21    -1     0     0   502   511  0.000000000E+00  0.000000000E+00  1.271961046E+02  1.271961046E+02  0.000000000E+00  0.00000E+00  9.000E+00
      21    -1     0     0   501   502  0.000000000E+00  0.000000000E+00 -4.143171462E+02  4.143171462E+02  0.000000000E+00  0.00000E+00  9.000E+00
      25     1     1     2     0     0  9.278526658E+01  9.624484046E+01 -2.990566582E+02  3.506166850E+02  1.250000000E+02  0.00000E+00  9.000E+00
      25     1     1     2     0     0 -9.315445455E+01 -8.337571452E+01  6.461791406E+00  1.769068029E+02  1.250000000E+02  0.00000E+00  9.000E+00
      21     1     1     2   501   511  3.691879669E-01 -1.286912594E+01  5.473825199E+00  1.398976285E+01  1.332800375E-07  0.00000E+00  9.000E+00
#rwgt            1           1   3.6280863354244068E-002           5       99580           0
</event>
<event>
      5   9999  3.79277E-02  6.00940E+01 -1.00000E+00  1.34667E-01
      21    -1     0     0   502   501  0.000000000E+00  0.000000000E+00  7.757805885E+02  7.757805885E+02  0.000000000E+00  0.00000E+00  9.000E+00
      21    -1     0     0   512   502  0.000000000E+00  0.000000000E+00 -6.525278409E+01  6.525278409E+01  0.000000000E+00  0.00000E+00  9.000E+00
      25     1     1     2     0     0 -1.154145969E+02 -1.137569549E+02  3.879191175E+02  4.385970995E+02  1.250000000E+02  0.00000E+00  9.000E+00
      25     1     1     2     0     0  1.183327692E+02  5.373388667E+01  2.483432379E+02  3.069028163E+02  1.250000000E+02  0.00000E+00  9.000E+00
      21     1     1     2   512   501 -2.918172333E+00  6.002306821E+01  7.426544900E+01  9.553345677E+01  1.348699152E-06  0.00000E+00  9.000E+00
#rwgt            2          11   2.7769130540202069E-003           5       99811           0
</event>
<event>
      5   9999  3.79277E-02  4.29748E+01 -1.00000E+00  1.42934E-01
      21    -1     0     0   502   501  0.000000000E+00  0.000000000E+00  7.915468431E+01  7.915468431E+01  0.000000000E+00  0.00000E+00  9.000E+00
      21    -1     0     0   501   511  0.000000000E+00  0.000000000E+00 -1.070954291E+03  1.070954291E+03  0.000000000E+00  0.00000E+00  9.000E+00
      25     1     1     2     0     0  1.589064251E+02 -1.632045818E+01 -9.118564107E+01  2.223902660E+02  1.250000000E+02  0.00000E+00  9.000E+00
      25     1     1     2     0     0 -1.280864336E+02 -1.362882725E+01 -7.396065382E+02  7.610747078E+02  1.250000000E+02  0.00000E+00  9.000E+00
      21     1     1     2   502   511 -3.081999141E+01  2.994928543E+01 -1.610074273E+02  1.666440014E+02  3.303624740E-06  0.00000E+00  9.000E+00
#rwgt            1           1   4.4217616499402486E-002           5       99831           0
</event>
<event>
      5   9999  3.79277E-02  5.15508E+01 -1.00000E+00  1.38323E-01
      21    -1     0     0   502   512  0.000000000E+00  0.000000000E+00  3.116067103E+02  3.116067103E+02  0.000000000E+00  0.00000E+00  9.000E+00
      21    -1     0     0   501   502  0.000000000E+00  0.000000000E+00 -1.461294424E+02  1.461294424E+02  0.000000000E+00  0.00000E+00  9.000E+00
      25     1     1     2     0     0  7.326649147E+01  6.998502705E+01  1.826868242E+02  2.434447751E+02  1.250000000E+02  0.00000E+00  9.000E+00
      25     1     1     2     0     0 -2.243369553E+01 -7.855915039E+01 -4.468788507E+01  1.558743657E+02  1.250000000E+02  0.00000E+00  9.000E+00
      21     1     1     2   501   512 -5.083279593E+01  8.574123338E+00  2.747832874E+01  5.841701194E+01  3.371747881E-07  0.00000E+00  9.000E+00
#rwgt            1           1   4.3239300582665049E-002           5       99925           0
</event>
<event>
      5   9999  3.79277E-02  6.82875E+00 -1.00000E+00  2.17085E-01
      21    -1     0     0   502   501  0.000000000E+00  0.000000000E+00  1.536471207E+02  1.536471207E+02  0.000000000E+00  0.00000E+00  9.000E+00
      21    -1     0     0   511   502  0.000000000E+00  0.000000000E+00 -3.137597557E+02  3.137597557E+02  0.000000000E+00  0.00000E+00  9.000E+00
      25     1     1     2     0     0  9.275779521E+01 -1.118519980E+02 -1.688377950E+02  2.554331205E+02  1.250000000E+02  0.00000E+00  9.000E+00
      25     1     1     2     0     0 -8.742321725E+01  1.161151092E+02  2.594247003E+01  1.934516716E+02  1.250000000E+02  0.00000E+00  9.000E+00
      21     1     1     2   511   501 -5.334577963E+00 -4.263111212E+00 -1.721730999E+01  1.852208419E+01  0.000000000E+00  0.00000E+00  9.000E+00
#rwgt            1           1   3.1913820311537208E-002           5      100007           0
</event>
<event>
      5   9999 -3.79277E-02  1.31616E+02 -1.00000E+00  1.18689E-01
      21    -1     0     0   502   501  0.000000000E+00  0.000000000E+00  2.217119705E+02  2.217119705E+02  0.000000000E+00  0.00000E+00  9.000E+00
      21    -1     0     0   501   512  0.000000000E+00  0.000000000E+00 -4.484809791E+02  4.484809791E+02  0.000000000E+00  0.00000E+00  9.000E+00
      25     1     1     2     0     0  1.263932098E+02  1.329477003E+02 -8.254179098E+01  2.368300693E+02  1.250000000E+02  0.00000E+00  9.000E+00
      25     1     1     2     0     0  3.898742374E+00 -1.515678062E+02  4.621721159E+01  2.018638916E+02  1.250000000E+02  0.00000E+00  9.000E+00
      21     1     1     2   502   512 -1.302919521E+02  1.862010598E+01 -1.904444292E+02  2.314989887E+02  2.697398305E-06  0.00000E+00  9.000E+00
#rwgt            1           1  -5.3992537745797799E-002           5      100378           0
</event>
<event>
      5   9999  3.79277E-02  1.98490E+01 -1.00000E+00  1.66641E-01
      21    -1     0     0   502   501  0.000000000E+00  0.000000000E+00  2.796225972E+02  2.796225972E+02  0.000000000E+00  0.00000E+00  9.000E+00
      21    -1     0     0   501   511  0.000000000E+00  0.000000000E+00 -4.267455634E+02  4.267455634E+02  0.000000000E+00  0.00000E+00  9.000E+00
      25     1     1     2     0     0  2.961881367E+02 -7.425769625E+01 -1.069719252E+02  3.468567580E+02  1.250000000E+02  0.00000E+00  9.000E+00
      25     1     1     2     0     0 -2.768002999E+02  7.851157561E+01  1.135086914E+00  3.137017086E+02  1.250000000E+02  0.00000E+00  9.000E+00
      21     1     1     2   502   511 -1.938783678E+01 -4.253879353E+00 -4.128612793E+01  4.580969400E+01  4.768371582E-07  0.00000E+00  9.000E+00
#rwgt            1           1  0.10729955047284684                5      100529           0
</event>
<event>
      5   9999  3.79277E-02  4.52565E+01 -1.00000E+00  1.41591E-01
      21    -1     0     0   502   501  0.000000000E+00  0.000000000E+00  2.797876316E+02  2.797876316E+02  0.000000000E+00  0.00000E+00  9.000E+00
      -2    -1     0     0     0   502  0.000000000E+00  0.000000000E+00 -5.947348819E+02  5.947348819E+02  0.000000000E+00  0.00000E+00  9.000E+00
      25     1     1     2     0     0 -1.645547444E+02 -1.681722679E+02 -1.581846079E+02  3.098508444E+02  1.250000000E+02  0.00000E+00  9.000E+00
      25     1     1     2     0     0  1.495905444E+02  2.108831535E+02  9.989013142E+01  3.040593261E+02  1.250000000E+02  0.00000E+00  9.000E+00
      -2     1     1     2     0   501  1.496420001E+01 -4.271088564E+01 -2.566527738E+02  2.606123431E+02  0.000000000E+00  0.00000E+00  9.000E+00
#rwgt            1           1   2.9975408578890448E-002           5      100737           0
</event>
<event>
      5   9999  3.79277E-02  7.16731E+01 -1.00000E+00  1.30703E-01
       2    -1     0     0   502     0  0.000000000E+00  0.000000000E+00  1.959019316E+03  1.959019316E+03  0.000000000E+00  0.00000E+00  9.000E+00
      21    -1     0     0   501   502  0.000000000E+00  0.000000000E+00 -8.168870719E+01  8.168870719E+01  0.000000000E+00  0.00000E+00  9.000E+00
      25     1     1     2     0     0 -1.833171670E+02  2.206553665E+01  2.264122015E+02  3.177728066E+02  1.250000000E+02  0.00000E+00  9.000E+00
      25     1     1     2     0     0  2.273190376E+02 -7.864171064E+01  4.914564293E+02  5.612600871E+02  1.250000000E+02  0.00000E+00  9.000E+00
       2     1     1     2   501     0 -4.400187059E+01  5.657617400E+01  1.159461978E+03  1.161675129E+03  1.525878906E-05  0.00000E+00  9.000E+00
#rwgt            1           1   2.9828337619647573E-002           5      100867           0
</event>
<event>
      5   9999  3.79277E-02  5.08994E+01 -1.00000E+00  1.38635E-01
      21    -1     0     0   502   501  0.000000000E+00  0.000000000E+00  2.744028256E+02  2.744028256E+02  0.000000000E+00  0.00000E+00  9.000E+00
       1    -1     0     0   501     0  0.000000000E+00  0.000000000E+00 -6.139685774E+02  6.139685774E+02  0.000000000E+00  0.00000E+00  9.000E+00
      25     1     1     2     0     0 -7.007879523E+00  1.059022142E+02 -1.773390948E+02  2.415337324E+02  1.250000000E+02  0.00000E+00  9.000E+00
      25     1     1     2     0     0  5.334602439E+01 -8.484227794E+01  2.139185887E+02  2.672642383E+02  1.250000000E+02  0.00000E+00  9.000E+00
       1     1     1     2   502     0 -4.633814487E+01 -2.105993629E+01 -3.761452458E+02  3.795734323E+02  7.629394531E-06  0.00000E+00  9.000E+00
#rwgt            1           1   3.6397281898359696E-002           5      101065           0
</event>
<event>
      5   9999  3.79277E-02  2.91735E+01 -1.00000E+00  1.53887E-01
      21    -1     0     0   502   501  0.000000000E+00  0.000000000E+00  2.326699024E+02  2.326699024E+02  0.000000000E+00  0.00000E+00  9.000E+00
      21    -1     0     0   501   511  0.000000000E+00  0.000000000E+00 -5.953910175E+02  5.953910175E+02  0.000000000E+00  0.00000E+00  9.000E+00
      25     1     1     2     0     0  1.423950230E+02 -2.175071275E+02  4.783943734E+01  2.924026417E+02  1.250000000E+02  0.00000E+00  9.000E+00
      25     1     1     2     0     0 -1.715677633E+02  2.172955523E+02 -3.231733162E+02  4.435299840E+02  1.250000000E+02  0.00000E+00  9.000E+00
      21     1     1     2   502   511  2.917274030E+01  2.115752733E-01 -8.738723626E+01  9.212829425E+01  9.536743164E-07  0.00000E+00  9.000E+00
#rwgt            1           1   3.5777071303332353E-002           5      101203           0
</event>
<event>
      5   9999  3.79277E-02  1.38460E+01 -1.00000E+00  1.80723E-01
      21    -1     0     0   502   512  0.000000000E+00  0.000000000E+00  4.728727213E+02  4.728727213E+02  0.000000000E+00  0.00000E+00  9.000E+00
      21    -1     0     0   501   502  0.000000000E+00  0.000000000E+00 -6.822310388E+01  6.822310388E+01  0.000000000E+00  0.00000E+00  9.000E+00
      25     1     1     2     0     0  4.703420789E+01 -6.818193033E+01  6.063131001E+01  1.617471734E+02  1.250000000E+02  0.00000E+00  9.000E+00
      25     1     1     2     0     0 -3.514740270E+01  6.108163361E+01  2.896737004E+02  3.232679362E+02  1.250000000E+02  0.00000E+00  9.000E+00
      21     1     1     2   501   512 -1.188680519E+01  7.100296714E+00  5.434460704E+01  5.608071562E+01  9.536743164E-07  0.00000E+00  9.000E+00
#rwgt            1           1   2.9997448417557280E-002           5      101363           0
</event>
<event>
      5   9999  3.79277E-02  7.91747E+01 -1.00000E+00  1.28568E-01
      21    -1     0     0   511   501  0.000000000E+00  0.000000000E+00  1.265728232E+02  1.265728232E+02  0.000000000E+00  0.00000E+00  9.000E+00
      21    -1     0     0   501   502  0.000000000E+00  0.000000000E+00 -5.311051878E+02  5.311051878E+02  0.000000000E+00  0.00000E+00  9.000E+00
      25     1     1     2     0     0  3.912867426E+01 -1.743365356E+02 -3.376585747E+02  4.019484965E+02  1.250000000E+02  0.00000E+00  9.000E+00
      25     1     1     2     0     0 -5.490828752E+01  9.675021314E+01 -3.925958146E+01  1.718773939E+02  1.250000000E+02  0.00000E+00  9.000E+00
      21     1     1     2   511   502  1.577961326E+01  7.758632248E+01 -2.761420847E+01  8.385212066E+01  1.168007728E-06  0.00000E+00  9.000E+00
#rwgt            1           1   3.4828391478279673E-002           5      101682           0
</event>
<event>
      5   9999  3.79277E-02  3.20798E+01 -1.00000E+00  1.51045E-01
      21    -1     0     0   502   512  0.000000000E+00  0.000000000E+00  3.950351031E+02  3.950351031E+02  0.000000000E+00  0.00000E+00  9.000E+00
      21    -1     0     0   501   502  0.000000000E+00  0.000000000E+00 -1.151220930E+03  1.151220930E+03  0.000000000E+00  0.00000E+00  9.000E+00
      25     1     1     2     0     0 -3.797035267E+02 -7.301853996E+01 -1.030996933E+02  4.192386220E+02  1.250000000E+02  0.00000E+00  9.000E+00
      25     1     1     2     0     0  3.908221444E+02  1.031099355E+02 -8.383174902E+02  9.390286586E+02  1.250000000E+02  0.00000E+00  9.000E+00
      21     1     1     2   501   512 -1.111861772E+01 -3.009139550E+01  1.852313565E+02  1.879887527E+02  2.697398305E-06  0.00000E+00  9.000E+00
#rwgt            1           1  0.29075926648303235                5      101807           0
</event>
<event>
      5   9999 -3.79277E-02  1.42046E+02 -1.00000E+00  1.17339E-01
      21    -1     0     0   502   501  0.000000000E+00  0.000000000E+00  6.783667449E+02  6.783667449E+02  0.000000000E+00  0.00000E+00  9.000E+00
      21    -1     0     0   501   511  0.000000000E+00  0.000000000E+00 -1.784816307E+02  1.784816307E+02  0.000000000E+00  0.00000E+00  9.000E+00
      25     1     1     2     0     0  9.281452384E+01 -1.037363588E+02  3.457151993E+02  3.930900241E+02  1.250000000E+02  0.00000E+00  9.000E+00
      25     1     1     2     0     0 -2.294882293E+02  6.504087921E+01  1.735825727E+02  3.203920612E+02  1.250000000E+02  0.00000E+00  9.000E+00
      21     1     1     2   502   511  1.366737055E+02  3.869547963E+01 -1.941265781E+01  1.433662903E+02  4.129530925E-07  0.00000E+00  9.000E+00
#rwgt            1           1  -5.1727095517551690E-002           5      102051           0
</event>
<event>
      5   9999 -3.79277E-02  1.10479E+02 -1.00000E+00  1.21912E-01
      21    -1     0     0   502   501  0.000000000E+00  0.000000000E+00  3.495181364E+02  3.495181364E+02  0.000000000E+00  0.00000E+00  9.000E+00
       2    -1     0     0   501     0  0.000000000E+00  0.000000000E+00 -1.862839837E+03  1.862839837E+03  0.000000000E+00  0.00000E+00  9.000E+00
      25     1     1     2     0     0 -1.670799975E+02  1.170829575E+02  1.390422648E+02  2.767343417E+02  1.250000000E+02  0.00000E+00  9.000E+00
      25     1     1     2     0     0  5.713035113E+01 -1.062856346E+02  8.592580720E+01  1.938266171E+02  1.250000000E+02  0.00000E+00  9.000E+00
       2     1     1     2   502     0  1.099496463E+02 -1.079732292E+01 -1.738289772E+03  1.741797014E+03  2.157918644E-05  0.00000E+00  9.000E+00
#rwgt            1           1  -5.2520076779724888E-002           5      102149           0
</event>
<event>
      5   9999  3.79277E-02  1.48965E+02 -1.00000E+00  1.16513E-01
      21    -1     0     0   502   511  0.000000000E+00  0.000000000E+00  2.079076963E+02  2.079076963E+02  0.000000000E+00  0.00000E+00  9.000E+00
      21    -1     0     0   501   502  0.000000000E+00  0.000000000E+00 -7.119167024E+02  7.119167024E+02  0.000000000E+00  0.00000E+00  9.000E+00
      25     1     1     2     0     0 -2.228445865E+02 -1.663783806E+01 -1.269103203E+02  2.857757106E+02  1.250000000E+02  0.00000E+00  9.000E+00
      25     1     1     2     0     0  2.713753831E+02 -1.241998034E+02 -3.601037947E+02  4.841176847E+02  1.250000000E+02  0.00000E+00  9.000E+00
      21     1     1     2   501   511 -4.853079659E+01  1.408376414E+02 -1.699489115E+01  1.499310034E+02  1.892388805E-06  0.00000E+00  9.000E+00
#rwgt            1           1   3.3899857924948741E-002           5      102188           0
</event>
<event>
      5   9999  3.79277E-02  7.85841E+01 -1.00000E+00  1.28726E-01
      21    -1     0     0   502   501  0.000000000E+00  0.000000000E+00  5.771081682E+02  5.771081682E+02  0.000000000E+00  0.00000E+00  9.000E+00
       3    -1     0     0   501     0  0.000000000E+00  0.000000000E+00 -3.176124514E+02  3.176124514E+02  0.000000000E+00  0.00000E+00  9.000E+00
      25     1     1     2     0     0 -1.623400268E+02  1.173093361E+02  3.652767783E+02  4.349343507E+02  1.250000000E+02  0.00000E+00  9.000E+00
      25     1     1     2     0     0  1.322118964E+02 -4.473004114E+01  1.187994999E+02  2.218537430E+02  1.250000000E+02  0.00000E+00  9.000E+00
       3     1     1     2   502     0  3.012813043E+01 -7.257929495E+01 -2.245805614E+02  2.379325259E+02  2.697398305E-06  0.00000E+00  9.000E+00
#rwgt            1           1   3.8729544103980426E-002           5      102251           0
</event>
<event>
      5   9999  3.79277E-02  3.51739E+02 -1.00000E+00  1.03394E-01
      21    -1     0     0   502   501  0.000000000E+00  0.000000000E+00  3.673540714E+02  3.673540714E+02  0.000000000E+00  0.00000E+00  9.000E+00
      -1    -1     0     0     0   502  0.000000000E+00  0.000000000E+00 -1.093377400E+03  1.093377400E+03  0.000000000E+00  0.00000E+00  9.000E+00
      25     1     1     2     0     0  8.057914336E+01 -6.334937209E+00 -1.781745457E+02  2.321729926E+02  1.250000000E+02  0.00000E+00  9.000E+00
      25     1     1     2     0     0  2.173870992E+02 -1.805772680E+02  2.231175305E+02  3.811452912E+02  1.250000000E+02  0.00000E+00  9.000E+00
      -1     1     1     2     0   501 -2.979662425E+02  1.869122052E+02 -7.709663133E+02  8.474131875E+02  1.078959322E-05  0.00000E+00  9.000E+00
#rwgt            2          10   4.7994768603093858E-005           5      102421           0
</event>
<event>
      5   9999  3.79277E-02  1.73768E+01 -1.00000E+00  1.71570E-01
      21    -1     0     0   502   501  0.000000000E+00  0.000000000E+00  2.962835869E+01  2.962835869E+01  0.000000000E+00  0.00000E+00  9.000E+00
      21    -1     0     0   501   511  0.000000000E+00  0.000000000E+00 -1.379295342E+03  1.379295342E+03  0.000000000E+00  0.00000E+00  9.000E+00
      25     1     1     2     0     0  5.624109060E+01  1.042744973E+02 -3.601584401E+02  3.992184027E+02  1.250000000E+02  0.00000E+00  9.000E+00
      25     1     1     2     0     0 -7.318998518E+01 -1.004418751E+02 -7.892348802E+02  8.086791949E+02  1.250000000E+02  0.00000E+00  9.000E+00
      21     1     1     2   502   511  1.694889458E+01 -3.832622271E+00 -2.002736626E+02  2.010261026E+02  2.697398305E-06  0.00000E+00  9.000E+00
#rwgt            1           1   3.7597780066684010E-002           5      102740           0
</event>
<event>
      5   9999  3.79277E-02  6.48575E+01 -1.00000E+00  1.32921E-01
      21    -1     0     0   502   501  0.000000000E+00  0.000000000E+00  1.308842171E+02  1.308842171E+02  0.000000000E+00  0.00000E+00  9.000E+00
      21    -1     0     0   501   512  0.000000000E+00  0.000000000E+00 -4.685257812E+02  4.685257812E+02  0.000000000E+00  0.00000E+00  9.000E+00
      25     1     1     2     0     0  5.327551741E+01 -1.251597381E+02 -1.594710658E+01  1.854253246E+02  1.250000000E+02  0.00000E+00  9.000E+00
      25     1     1     2     0     0  8.778368223E+00  1.440227686E+02 -2.025850399E+02  2.783618437E+02  1.250000000E+02  0.00000E+00  9.000E+00
      21     1     1     2   502   512 -6.205388563E+01 -1.886303052E+01 -1.191094176E+02  1.356228300E+02  1.348699152E-06  0.00000E+00  9.000E+00
#rwgt            1           1   3.8196844305949669E-002           5      103032           0
</event>
<event>
      5   9999  3.79277E-02  6.00465E+01 -1.00000E+00  1.34685E-01
      21    -1     0     0   502   501  0.000000000E+00  0.000000000E+00  1.332098026E+02  1.332098026E+02  0.000000000E+00  0.00000E+00  9.000E+00
      21    -1     0     0   501   511  0.000000000E+00  0.000000000E+00 -1.037117121E+03  1.037117121E+03  0.000000000E+00  0.00000E+00  9.000E+00
      25     1     1     2     0     0 -2.170693450E+02  1.253040250E+02 -2.625483016E+02  3.838968740E+02  1.250000000E+02  0.00000E+00  9.000E+00
      25     1     1     2     0     0  2.251045602E+02 -1.848104412E+02 -2.887737931E+02  4.287683124E+02  1.250000000E+02  0.00000E+00  9.000E+00
      21     1     1     2   502   511 -8.035215193E+00  5.950641628E+01 -3.525852235E+02  3.576617370E+02  5.394796609E-06  0.00000E+00  9.000E+00
#rwgt            1           1   2.5496322773324448E-002           5      103267           0
</event>
<event>
      5   9999  3.79277E-02  3.06553E+01 -1.00000E+00  1.52391E-01
      21    -1     0     0   512   501  0.000000000E+00  0.000000000E+00  4.061820591E+02  4.061820591E+02  0.000000000E+00  0.00000E+00  9.000E+00
      21    -1     0     0   501   502  0.000000000E+00  0.000000000E+00 -7.124346534E+02  7.124346534E+02  0.000000000E+00  0.00000E+00  9.000E+00
      25     1     1     2     0     0 -4.243523350E+01  1.222185628E+02 -1.231098189E+02  2.179888842E+02  1.250000000E+02  0.00000E+00  9.000E+00
      25     1     1     2     0     0  3.189128032E+01 -9.343365545E+01 -5.294882692E+02  5.529283217E+02  1.250000000E+02  0.00000E+00  9.000E+00
      21     1     1     2   512   502  1.054395318E+01 -2.878490733E+01  3.463454938E+02  3.476995066E+02  5.394796609E-06  0.00000E+00  9.000E+00
#rwgt            1           1   4.2581631074051454E-002           5      103396           0
</event>
<event>
      5   9999  3.79277E-02  1.23273E+01 -1.00000E+00  1.85808E-01
      21    -1     0     0   502   501  0.000000000E+00  0.000000000E+00  6.484046191E+01  6.484046191E+01  0.000000000E+00  0.00000E+00  9.000E+00
       2    -1     0     0   501     0  0.000000000E+00  0.000000000E+00 -1.332371616E+03  1.332371616E+03  0.000000000E+00  0.00000E+00  9.000E+00
      25     1     1     2     0     0  7.679568664E+00  3.404979316E+01 -2.027099461E+01  1.313555382E+02  1.250000000E+02  0.00000E+00  9.000E+00
      25     1     1     2     0     0 -1.814837266E+01 -2.754077899E+01 -4.423994741E+02  4.609014566E+02  1.250000000E+02  0.00000E+00  9.000E+00
       2     1     1     2   502     0  1.046880400E+01 -6.509014171E+00 -8.048606857E+02  8.049550835E+02  0.000000000E+00  0.00000E+00  9.000E+00
#rwgt            1           1   5.5092873368418713E-002           5      103521           0
</event>
<event>
      5   9999  3.79277E-02  3.30366E+01 -1.00000E+00  1.50187E-01
      21    -1     0     0   502   511  0.000000000E+00  0.000000000E+00  3.790098787E+01  3.790098787E+01  0.000000000E+00  0.00000E+00  9.000E+00
      21    -1     0     0   501   502  0.000000000E+00  0.000000000E+00 -1.487349038E+03  1.487349038E+03  0.000000000E+00  0.00000E+00  9.000E+00
      25     1     1     2     0     0  6.836497823E+01  1.366352205E+02 -4.356246114E+02  4.782643159E+02  1.250000000E+02  0.00000E+00  9.000E+00
      25     1     1     2     0     0 -9.663284701E+01 -1.195372082E+02 -9.795399252E+02  9.993750629E+02  1.250000000E+02  0.00000E+00  9.000E+00
      21     1     1     2   501   511  2.826786879E+01 -1.709801235E+01 -3.428351384E+01  4.761064748E+01  8.259061849E-07  0.00000E+00  9.000E+00
#rwgt            1           1   2.4813838937260052E-002           5      103782           0
</event>
<event>
      5   9999  3.79277E-02  1.24447E+02 -1.00000E+00  1.19701E-01
      21    -1     0     0   502   512  0.000000000E+00  0.000000000E+00  2.904424443E+02  2.904424443E+02  0.000000000E+00  0.00000E+00  9.000E+00
      21    -1     0     0   501   502  0.000000000E+00  0.000000000E+00 -3.968925244E+02  3.968925244E+02  0.000000000E+00  0.00000E+00  9.000E+00
      25     1     1     2     0     0 -1.450755259E+02  5.610831028E+01  5.485409261E+01  2.069517388E+02  1.250000000E+02  0.00000E+00  9.000E+00
      25     1     1     2     0     0  2.414483931E+02  2.262702834E+01 -2.124985901E+02  3.458178129E+02  1.250000000E+02  0.00000E+00  9.000E+00
      21     1     1     2   501   512 -9.637286715E+01 -7.873533862E+01  5.119441748E+01  1.345654170E+02  2.861022949E-06  0.00000E+00  9.000E+00
#rwgt            1           1   4.0856716503290931E-002           5      103969           0
</event>
<event>
      5   9999  3.79277E-02  1.89834E+02 -1.00000E+00  1.12479E-01
      21    -1     0     0   502   501  0.000000000E+00  0.000000000E+00  2.912788986E+02  2.912788986E+02  0.000000000E+00  0.00000E+00  9.000E+00
      21    -1     0     0   501   511  0.000000000E+00  0.000000000E+00 -1.722493884E+03  1.722493884E+03  0.000000000E+00  0.00000E+00  9.000E+00
      25     1     1     2     0     0 -2.044279934E+01 -1.313474192E+02 -4.180612730E+01  1.871972351E+02  1.250000000E+02  0.00000E+00  9.000E+00
      25     1     1     2     0     0  2.098888077E+02  1.192239187E+02  1.257937577E+02  2.995275010E+02  1.250000000E+02  0.00000E+00  9.000E+00
      21     1     1     2   502   511 -1.894460084E+02  1.212350049E+01 -1.515202616E+03  1.527048047E+03  2.157918644E-05  0.00000E+00  9.000E+00
#rwgt            1           1   3.4453929094064105E-002           5      104080           0
</event>
<event>
      5   9999  3.79277E-02  2.80146E+01 -1.00000E+00  1.55134E-01
      21    -1     0     0   502   501  0.000000000E+00  0.000000000E+00  1.240202089E+02  1.240202089E+02  0.000000000E+00  0.00000E+00  9.000E+00
      21    -1     0     0   512   502  0.000000000E+00  0.000000000E+00 -6.446245263E+02  6.446245263E+02  0.000000000E+00  0.00000E+00  9.000E+00
      25     1     1     2     0     0 -1.702124559E+02  1.612501397E+02 -3.356474714E+02  4.280865716E+02  1.250000000E+02  0.00000E+00  9.000E+00
      25     1     1     2     0     0  1.670470222E+02 -1.334148998E+02 -1.319571009E+02  2.806099064E+02  1.250000000E+02  0.00000E+00  9.000E+00
      21     1     1     2   512   501  3.165433704E+00 -2.783523991E+01 -5.299974513E+01  5.994825715E+01  0.000000000E+00  0.00000E+00  9.000E+00
#rwgt            1           1   3.1592930103985832E-002           5      104238           0
</event>
<event>
      5   9999  3.79277E-02  3.54822E+01 -1.00000E+00  1.48144E-01
      21    -1     0     0   502   501  0.000000000E+00  0.000000000E+00  3.997682756E+02  3.997682756E+02  0.000000000E+00  0.00000E+00  9.000E+00
      21    -1     0     0   511   502  0.000000000E+00  0.000000000E+00 -9.116533195E+01  9.116533195E+01  0.000000000E+00  0.00000E+00  9.000E+00
      25     1     1     2     0     0 -3.585975654E+01  5.842702454E+01  2.510651379E+02  2.887184491E+02  1.250000000E+02  0.00000E+00  9.000E+00
      25     1     1     2     0     0  7.125073024E+01 -6.096981122E+01  3.486592977E+01  1.601081431E+02  1.250000000E+02  0.00000E+00  9.000E+00
      21     1     1     2   511   501 -3.539097370E+01  2.542786687E+00  2.267187595E+01  4.210701536E+01  3.371747881E-07  0.00000E+00  9.000E+00
#rwgt            1           1   4.2871258534595572E-002           5      104418           0
</event>
<event>
      5   9999  3.79277E-02  8.90002E+01 -1.00000E+00  1.26148E-01
      21    -1     0     0   502   501  0.000000000E+00  0.000000000E+00  5.095173154E+02  5.095173154E+02  0.000000000E+00  0.00000E+00  9.000E+00
      21    -1     0     0   501   512  0.000000000E+00  0.000000000E+00 -2.518303522E+02  2.518303522E+02  0.000000000E+00  0.00000E+00  9.000E+00
      25     1     1     2     0     0  2.155465526E+02 -1.745328136E+02  6.005311821E+01  3.100861112E+02  1.250000000E+02  0.00000E+00  9.000E+00
      25     1     1     2     0     0 -1.505227219E+02  2.353023047E+02  1.937039656E+02  3.621746688E+02  1.250000000E+02  0.00000E+00  9.000E+00
      21     1     1     2   502   512 -6.502383068E+01 -6.076949111E+01  3.929879409E+00  8.908688769E+01  3.976125736E-07  0.00000E+00  9.000E+00
#rwgt            1           1   2.8824336739383900E-002           5      104689           0
</event>
<event>
      5   9999 -3.79277E-02  8.54462E+01 -1.00000E+00  1.26980E-01
      21    -1     0     0   502   511  0.000000000E+00  0.000000000E+00  4.495805374E+02  4.495805374E+02  0.000000000E+00  0.00000E+00  9.000E+00
      21    -1     0     0   501   502  0.000000000E+00  0.000000000E+00 -2.959144987E+02  2.959144987E+02  0.000000000E+00  0.00000E+00  9.000E+00
      25     1     1     2     0     0 -2.192941773E+02 -9.471245062E+01 -8.304948712E+01  2.821038848E+02  1.250000000E+02  0.00000E+00  9.000E+00
      25     1     1     2     0     0  1.710028808E+02  2.422125563E+01  1.572291944E+00  2.132044244E+02  1.250000000E+02  0.00000E+00  9.000E+00
      21     1     1     2   501   511  4.829129643E+01  7.049119499E+01  2.351432339E+02  2.501867269E+02  2.697398305E-06  0.00000E+00  9.000E+00
#rwgt            1           1  -8.7824457527655400E-002           5      104844           0
</event>
<event>
      5   9999  3.79277E-02  1.75840E+01 -1.00000E+00  1.71118E-01
      21    -1     0     0   502   501  0.000000000E+00  0.000000000E+00  9.170576505E+02  9.170576505E+02  0.000000000E+00  0.00000E+00  9.000E+00
      21    -1     0     0   512   502  0.000000000E+00  0.000000000E+00 -5.824819245E+01  5.824819245E+01  0.000000000E+00  0.00000E+00  9.000E+00
      25     1     1     2     0     0 -1.280047125E+02  6.893646697E+01  3.159716129E+02  3.695950528E+02  1.250000000E+02  0.00000E+00  9.000E+00
      25     1     1     2     0     0  1.383045458E+02 -8.318814561E+01  5.500464962E+02  5.867065390E+02  1.250000000E+02  0.00000E+00  9.000E+00
      21     1     1     2   512   501 -1.029983330E+01  1.425167864E+01 -7.208651074E+00  1.900425111E+01  3.039252468E-07  0.00000E+00  9.000E+00
#rwgt            1           1   5.3168856934253134E-002           5      104894           0
</event>
<event>
      5   9999  3.79277E-02  8.40542E+01 -1.00000E+00  1.27319E-01
      21    -1     0     0   502   511  0.000000000E+00  0.000000000E+00  1.233506974E+03  1.233506974E+03  0.000000000E+00  0.00000E+00  9.000E+00
      21    -1     0     0   501   502  0.000000000E+00  0.000000000E+00 -9.247622198E+01  9.247622198E+01  0.000000000E+00  0.00000E+00  9.000E+00
      25     1     1     2     0     0 -1.906956679E+01 -2.001561703E+02  5.211997752E+02  5.724511739E+02  1.250000000E+02  0.00000E+00  9.000E+00
      25     1     1     2     0     0  1.496373020E+01  2.841099857E+02  3.366916695E+02  4.581797437E+02  1.250000000E+02  0.00000E+00  9.000E+00
      21     1     1     2   501   511  4.105836593E+00 -8.395381539E+01  2.831393078E+02  2.953522789E+02  3.814697266E-06  0.00000E+00  9.000E+00
#rwgt            1           1   3.4632374105793902E-002           5      105167           0
</event>
<event>
      5   9999  3.79277E-02  3.35674E+01 -1.00000E+00  1.49726E-01
      21    -1     0     0   502   512  0.000000000E+00  0.000000000E+00  8.886773886E+01  8.886773886E+01  0.000000000E+00  0.00000E+00  9.000E+00
      21    -1     0     0   501   502  0.000000000E+00  0.000000000E+00 -1.836509367E+03  1.836509367E+03  0.000000000E+00  0.00000E+00  9.000E+00
      25     1     1     2     0     0  2.635764720E+02 -4.224264059E+01 -1.428452966E+03  1.458547179E+03  1.250000000E+02  0.00000E+00  9.000E+00
      25     1     1     2     0     0 -2.365934233E+02  6.220968346E+01 -3.319794615E+02  4.309081752E+02  1.250000000E+02  0.00000E+00  9.000E+00
      21     1     1     2   501   512 -2.698304874E+01 -1.996704287E+01  1.279079905E+01  3.592175191E+01  1.517286546E-06  0.00000E+00  9.000E+00
#rwgt            1           1   4.3022721009374737E-002           5      105276           0
</event>
<event>
      5   9999  3.79277E-02  9.89705E+01 -1.00000E+00  1.24030E-01
      21    -1     0     0   502   501  0.000000000E+00  0.000000000E+00  5.772249581E+01  5.772249581E+01  0.000000000E+00  0.00000E+00  9.000E+00
      21    -1     0     0   511   502  0.000000000E+00  0.000000000E+00 -1.263608149E+03  1.263608149E+03  0.000000000E+00  0.00000E+00  9.000E+00
      25     1     1     2     0     0  7.981240089E+01  5.709113399E+01 -2.530965500E+02  2.988516029E+02  1.250000000E+02  0.00000E+00  9.000E+00
      25     1     1     2     0     0 -1.540042709E+02 -1.225948058E+02 -4.182771635E+02  4.788816006E+02  1.250000000E+02  0.00000E+00  9.000E+00
      21     1     1     2   511   501  7.419187000E+01  6.550367184E+01 -5.345119401E+02  5.435974418E+02  0.000000000E+00  0.00000E+00  9.000E+00
#rwgt            1           1   3.1507911212925253E-002           5      105488           0
</event>
<event>
      5   9999 -3.79277E-02  4.56660E+01 -1.00000E+00  1.41360E-01
      21    -1     0     0   512   501  0.000000000E+00  0.000000000E+00  1.498738303E+02  1.498738303E+02  0.000000000E+00  0.00000E+00  9.000E+00
      21    -1     0     0   501   502  0.000000000E+00  0.000000000E+00 -6.943143629E+02  6.943143629E+02  0.000000000E+00  0.00000E+00  9.000E+00
      25     1     1     2     0     0  1.477280254E+02 -5.447951318E+01 -5.123038379E+02  5.503379045E+02  1.250000000E+02  0.00000E+00  9.000E+00
      25     1     1     2     0     0 -1.391939275E+02  9.934101634E+01 -8.117343048E+01  2.268429254E+02  1.250000000E+02  0.00000E+00  9.000E+00
      21     1     1     2   512   502 -8.534097881E+00 -4.486150316E+01  4.903673570E+01  6.700736333E+01  1.784161275E-06  0.00000E+00  9.000E+00
#rwgt            1           1 -0.11190122178941331                5      105611           0
</event>
<event>
      5   9999  3.79277E-02  5.01511E+01 -1.00000E+00  1.39001E-01
      21    -1     0     0   502   501  0.000000000E+00  0.000000000E+00  7.213159513E+01  7.213159513E+01  0.000000000E+00  0.00000E+00  9.000E+00
      21    -1     0     0   511   502  0.000000000E+00  0.000000000E+00 -8.486481538E+02  8.486481538E+02  0.000000000E+00  0.00000E+00  9.000E+00
      25     1     1     2     0     0 -1.580899503E+02 -6.668474997E+01 -4.022109585E+02  4.547943969E+02  1.250000000E+02  0.00000E+00  9.000E+00
      25     1     1     2     0     0  1.790613789E+02  2.112889562E+01 -2.539351146E+02  3.355852352E+02  1.250000000E+02  0.00000E+00  9.000E+00
      21     1     1     2   511   501 -2.097142861E+01  4.555585435E+01 -1.203704856E+02  1.304001169E+02  2.697398305E-06  0.00000E+00  9.000E+00
#rwgt            1           1   3.3331822334339532E-002           5      105752           0
</event>
<event>
      5   9999  3.79277E-02  1.50144E+01 -1.00000E+00  1.77344E-01
      21    -1     0     0   502   512  0.000000000E+00  0.000000000E+00  1.544556338E+03  1.544556338E+03  0.000000000E+00  0.00000E+00  9.000E+00
      21    -1     0     0   501   502  0.000000000E+00  0.000000000E+00 -4.483352858E+01  4.483352858E+01  0.000000000E+00  0.00000E+00  9.000E+00
      25     1     1     2     0     0 -1.750099227E+02 -4.765923535E+01  7.810943909E+02  8.115622732E+02  1.250000000E+02  0.00000E+00  9.000E+00
      25     1     1     2     0     0  1.882964527E+02  4.066638816E+01  4.188306117E+02  4.776540490E+02  1.250000000E+02  0.00000E+00  9.000E+00
      21     1     1     2   501   512 -1.328652995E+01  6.992847189E+00  2.997978071E+02  3.001735447E+02  0.000000000E+00  0.00000E+00  9.000E+00
#rwgt            1           1   4.6453873274828306E-002           5      105969           0
</event>
<event>
      5   9999  3.79277E-02  1.28846E+02 -1.00000E+00  1.19072E-01
      21    -1     0     0   502   501  0.000000000E+00  0.000000000E+00  1.386546837E+03  1.386546837E+03  0.000000000E+00  0.00000E+00  9.000E+00
      21    -1     0     0   501   511  0.000000000E+00  0.000000000E+00 -4.659495320E+01  4.659495320E+01  0.000000000E+00  0.00000E+00  9.000E+00
      25     1     1     2     0     0  1.106381253E+02 -2.817370951E+01  7.517548414E+02  7.705808811E+02  1.250000000E+02  0.00000E+00  9.000E+00
      25     1     1     2     0     0 -1.872082147E+01  1.184655777E+02  2.914171941E+02  3.390184999E+02  1.250000000E+02  0.00000E+00  9.000E+00
      21     1     1     2   502   511 -9.191730387E+01 -9.029186818E+01  2.967798481E+02  3.235424090E+02  3.814697266E-06  0.00000E+00  9.000E+00
#rwgt            1           1   4.5917746211272308E-002           5      106093           0
</event>
<event>
      5   9999  3.79277E-02  7.34043E+01 -1.00000E+00  1.30185E-01
      21    -1     0     0   502   501  0.000000000E+00  0.000000000E+00  6.894057204E+01  6.894057204E+01  0.000000000E+00  0.00000E+00  9.000E+00
      21    -1     0     0   512   502  0.000000000E+00  0.000000000E+00 -1.087829936E+03  1.087829936E+03  0.000000000E+00  0.00000E+00  9.000E+00
      25     1     1     2     0     0  4.308586276E+01 -8.451740547E+01 -5.694539448E+02  5.906795905E+02  1.250000000E+02  0.00000E+00  9.000E+00
      25     1     1     2     0     0  1.293627511E+01  1.319485326E+02 -9.765721934E+01  2.067358096E+02  1.250000000E+02  0.00000E+00  9.000E+00
      21     1     1     2   512   501 -5.602213787E+01 -4.743112710E+01 -3.517781994E+02  3.593551075E+02  8.529922400E-06  0.00000E+00  9.000E+00
#rwgt            1           1   3.0866338511359132E-002           5      106201           0
</event>
<event>
      5   9999  3.79277E-02  1.92484E+01 -1.00000E+00  1.67753E-01
      21    -1     0     0   511   501  0.000000000E+00  0.000000000E+00  1.423929885E+03  1.423929885E+03  0.000000000E+00  0.00000E+00  9.000E+00
      21    -1     0     0   501   502  0.000000000E+00  0.000000000E+00 -2.558187663E+01  2.558187663E+01  0.000000000E+00  0.00000E+00  9.000E+00
      25     1     1     2     0     0 -9.855079509E+01  7.065026980E-01  3.192658335E+02  3.567470124E+02  1.250000000E+02  0.00000E+00  9.000E+00
      25     1     1     2     0     0  8.547022647E+01 -1.482744639E+01  9.159885886E+02  9.285392330E+02  1.250000000E+02  0.00000E+00  9.000E+00
      21     1     1     2   511   502  1.308056862E+01  1.412094369E+01  1.630935859E+02  1.642255160E+02  3.303624740E-06  0.00000E+00  9.000E+00
#rwgt            1           1   3.7818862733798211E-002           5      106296           0
</event>
<event>
      5   9999  3.79277E-02  1.49691E+01 -1.00000E+00  1.77468E-01
      21    -1     0     0   502   501  0.000000000E+00  0.000000000E+00  3.024507311E+02  3.024507311E+02  0.000000000E+00  0.00000E+00  9.000E+00
      21    -1     0     0   512   502  0.000000000E+00  0.000000000E+00 -2.132535445E+02  2.132535445E+02  0.000000000E+00  0.00000E+00  9.000E+00
      25     1     1     2     0     0  9.444603442E+01 -7.425950739E+01 -9.528750778E+01  1.978363895E+02  1.250000000E+02  0.00000E+00  9.000E+00
      25     1     1     2     0     0 -1.039051436E+02  6.265788124E+01  2.192411840E+02  2.800249734E+02  1.250000000E+02  0.00000E+00  9.000E+00
      21     1     1     2   512   501  9.459109133E+00  1.160162616E+01 -3.475648969E+01  3.784291282E+01  4.768371582E-07  0.00000E+00  9.000E+00
#rwgt            1           1   1.2689834959412519E-002           5      106435           0
</event>
<event>
      5   9999  3.79277E-02  1.11948E+01 -1.00000E+00  1.90256E-01
      21    -1     0     0   511   501  0.000000000E+00  0.000000000E+00  6.123066891E+02  6.123066891E+02  0.000000000E+00  0.00000E+00  9.000E+00
      21    -1     0     0   501   502  0.000000000E+00  0.000000000E+00 -9.348256382E+01  9.348256382E+01  0.000000000E+00  0.00000E+00  9.000E+00
      25     1     1     2     0     0 -1.904337838E+02  3.886923474E+01  1.914599159E+02  3.000962226E+02  1.250000000E+02  0.00000E+00  9.000E+00
      25     1     1     2     0     0  1.820287908E+02 -3.147462394E+01  2.851687130E+02  3.620377432E+02  1.250000000E+02  0.00000E+00  9.000E+00
      21     1     1     2   511   502  8.404992980E+00 -7.394610796E+00  4.219549633E+01  4.365528704E+01  0.000000000E+00  0.00000E+00  9.000E+00
#rwgt            1           1   3.2987991137749910E-002           5      106648           0
</event>
<event>
      5   9999  3.79277E-02  7.74920E+01 -1.00000E+00  1.29023E-01
      21    -1     0     0   502   501  0.000000000E+00  0.000000000E+00  6.509665142E+02  6.509665142E+02  0.000000000E+00  0.00000E+00  9.000E+00
      21    -1     0     0   512   502  0.000000000E+00  0.000000000E+00 -8.950810056E+01  8.950810056E+01  0.000000000E+00  0.00000E+00  9.000E+00
      25     1     1     2     0     0  7.828774303E+01  3.512083877E+01  5.062722619E+02  5.284875091E+02  1.250000000E+02  0.00000E+00  9.000E+00
      25     1     1     2     0     0 -1.685952353E+00 -2.340840992E+01  3.471259446E+01  1.318361115E+02  1.250000000E+02  0.00000E+00  9.000E+00
      21     1     1     2   512   501 -7.660179068E+01 -1.171242885E+01  2.047355728E+01  8.015099420E+01  6.743495762E-07  0.00000E+00  9.000E+00
#rwgt            1           1   3.3471741346933821E-002           5      106864           0
</event>
<event>
      5   9999  3.79277E-02  8.28712E+01 -1.00000E+00  1.27613E-01
      21    -1     0     0   502   501  0.000000000E+00  0.000000000E+00  6.907524497E+02  6.907524497E+02  0.000000000E+00  0.00000E+00  9.000E+00
      21    -1     0     0   501   511  0.000000000E+00  0.000000000E+00 -1.545905450E+02  1.545905450E+02  0.000000000E+00  0.00000E+00  9.000E+00
      25     1     1     2     0     0  8.192436164E+01  7.357107385E+01  2.458551014E+02  2.969748050E+02  1.250000000E+02  0.00000E+00  9.000E+00
      25     1     1     2     0     0 -1.457608284E+02 -2.072651834E+01  3.799923859E+02  4.262569893E+02  1.250000000E+02  0.00000E+00  9.000E+00
      21     1     1     2   502   511  6.383646676E+01 -5.284455552E+01 -8.968558252E+01  1.221112003E+02  0.000000000E+00  0.00000E+00  9.000E+00
#rwgt            1           1   4.4659597849683534E-002           5      106950           0
</event>
<event>
      5   9999  3.79277E-02  2.86981E+02 -1.00000E+00  1.06222E-01
      21    -1     0     0   502   501  0.000000000E+00  0.000000000E+00  3.585569192E+02  3.585569192E+02  0.000000000E+00  0.00000E+00  9.000E+00
       2    -1     0     0   501     0  0.000000000E+00  0.000000000E+00 -1.998367720E+03  1.998367720E+03  0.000000000E+00  0.00000E+00  9.000E+00
      25     1     1     2     0     0 -2.608002185E+02  1.697118130E+02  1.610925828E+02  3.720143461E+02  1.250000000E+02  0.00000E+00  9.000E+00
      25     1     1     2     0     0  2.778928308E+02  1.167597373E+02 -2.592258875E+02  4.167497120E+02  1.250000000E+02  0.00000E+00  9.000E+00
       2     1     1     2   502     0 -1.709261234E+01 -2.864715503E+02 -1.541677496E+03  1.568160582E+03  3.737624730E-05  0.00000E+00  9.000E+00
#rwgt            2          13   1.8105787805823459E-003           5      107398           0
</event>
<event>
      5   9999  3.79277E-02  4.62594E+01 -1.00000E+00  1.41030E-01
       3    -1     0     0   502     0  0.000000000E+00  0.000000000E+00  2.061197599E+02  2.061197599E+02  0.000000000E+00  0.00000E+00  9.000E+00
      21    -1     0     0   501   502  0.000000000E+00  0.000000000E+00 -4.071613067E+02  4.071613067E+02  0.000000000E+00  0.00000E+00  9.000E+00
      25     1     1     2     0     0  1.085853180E+02 -6.362738299E+01 -3.299672049E+02  3.746232393E+02  1.250000000E+02  0.00000E+00  9.000E+00
      25     1     1     2     0     0 -6.370241450E+01  5.242652007E+01  7.465404197E+01  1.673462387E+02  1.250000000E+02  0.00000E+00  9.000E+00
       3     1     1     2   501     0 -4.488290353E+01  1.120086291E+01  5.427161608E+01  7.131158861E+01  0.000000000E+00  0.00000E+00  9.000E+00
#rwgt            2          19   8.7410883811866481E-006           5      107717           0
</event>
<event>
      5   9999  3.79277E-02  4.14939E+01 -1.00000E+00  1.43859E-01
      21    -1     0     0   502   501  0.000000000E+00  0.000000000E+00  1.153914939E+02  1.153914939E+02  0.000000000E+00  0.00000E+00  9.000E+00
       2    -1     0     0   501     0  0.000000000E+00  0.000000000E+00 -3.074201564E+03  3.074201564E+03  0.000000000E+00  0.00000E+00  9.000E+00
      25     1     1     2     0     0 -1.626589190E+01  1.027320180E+02 -7.922184169E+02  8.087357212E+02  1.250000000E+02  0.00000E+00  9.000E+00
      25     1     1     2     0     0  5.245943151E+01 -1.230240792E+02  2.859161727E+01  1.852819381E+02  1.250000000E+02  0.00000E+00  9.000E+00
       2     1     1     2   502     0 -3.619353961E+01  2.029206113E+01 -2.195183271E+03  2.195575399E+03  3.051757812E-05  0.00000E+00  9.000E+00
#rwgt            1           1   2.8031521990642315E-002           5      107751           0
</event>
<event>
      5   9999  3.79277E-02  1.42049E+02 -1.00000E+00  1.17339E-01
      21    -1     0     0   502   501  0.000000000E+00  0.000000000E+00  1.024184431E+03  1.024184431E+03  0.000000000E+00  0.00000E+00  9.000E+00
      21    -1     0     0   501   511  0.000000000E+00  0.000000000E+00 -2.508284199E+02  2.508284199E+02  0.000000000E+00  0.00000E+00  9.000E+00
      25     1     1     2     0     0  1.364146260E+02  1.544357999E+02  2.978941968E+02  3.831779208E+02  1.250000000E+02  0.00000E+00  9.000E+00
      25     1     1     2     0     0 -1.792924024E+02 -1.901223733E+01  6.387677372E+02  6.753935540E+02  1.250000000E+02  0.00000E+00  9.000E+00
      21     1     1     2   502   511  4.287777641E+01 -1.354235626E+02 -1.633059227E+02  2.164413763E+02  1.907348633E-06  0.00000E+00  9.000E+00
#rwgt            1           1   7.5478030480296568E-002           5      107934           0
</event>
<event>
      5   9999  3.79277E-02  2.31286E+01 -1.00000E+00  1.61324E-01
       2    -1     0     0   502     0  0.000000000E+00  0.000000000E+00  5.561025095E+02  5.561025095E+02  0.000000000E+00  0.00000E+00  9.000E+00
      21    -1     0     0   501   502  0.000000000E+00  0.000000000E+00 -3.893091348E+02  3.893091348E+02  0.000000000E+00  0.00000E+00  9.000E+00
      25     1     1     2     0     0  2.859694933E+01  1.521235024E+00  9.018424769E+01  1.567746733E+02  1.250000000E+02  0.00000E+00  9.000E+00
      25     1     1     2     0     0 -6.984026855E+00 -9.756175621E+00 -3.446135220E+02  3.667798238E+02  1.250000000E+02  0.00000E+00  9.000E+00
       2     1     1     2   501     0 -2.161292247E+01  8.234940598E+00  4.212226490E+02  4.218571473E+02  5.394796609E-06  0.00000E+00  9.000E+00
#rwgt            1           1   3.1262564410837093E-002           5      108028           0
</event>
<event>
      5   9999  3.79277E-02  1.97154E+02 -1.00000E+00  1.11875E-01
      21    -1     0     0   502   501  0.000000000E+00  0.000000000E+00  6.239643962E+02  6.239643962E+02  0.000000000E+00  0.00000E+00  9.000E+00
      21    -1     0     0   511   502  0.000000000E+00  0.000000000E+00 -3.443683531E+02  3.443683531E+02  0.000000000E+00  0.00000E+00  9.000E+00
      25     1     1     2     0     0  1.228878586E+01  7.663405675E+01 -2.140543389E+02  2.597461317E+02  1.250000000E+02  0.00000E+00  9.000E+00
      25     1     1     2     0     0  9.902860869E+01  8.608694677E+01  4.775452173E+02  5.107759414E+02  1.250000000E+02  0.00000E+00  9.000E+00
      21     1     1     2   511   501 -1.113173946E+02 -1.627210035E+02  1.610516471E+01  1.978106763E+02  3.953724850E-06  0.00000E+00  9.000E+00
#rwgt            1           1   3.7912483066297707E-002           5      108182           0
</event>
<event>
      5   9999  3.79277E-02  7.90505E+01 -1.00000E+00  1.28601E-01
      21    -1     0     0   502   512  0.000000000E+00  0.000000000E+00  1.346149765E+03  1.346149765E+03  0.000000000E+00  0.00000E+00  9.000E+00
      21    -1     0     0   501   502  0.000000000E+00  0.000000000E+00 -3.156435564E+01  3.156435564E+01  0.000000000E+00  0.00000E+00  9.000E+00
      25     1     1     2     0     0  6.462425111E+01 -1.490166642E+01  2.840854181E+02  3.173765560E+02  1.250000000E+02  0.00000E+00  9.000E+00
      25     1     1     2     0     0 -6.852343958E+01  9.385590123E+01  6.946417586E+02  7.153017299E+02  1.250000000E+02  0.00000E+00  9.000E+00
      21     1     1     2   501   512  3.899188477E+00 -7.895423482E+01  3.358582326E+02  3.450358348E+02  0.000000000E+00  0.00000E+00  9.000E+00
#rwgt            1           1   5.8206516458531483E-002           5      108236           0
</event>
<event>
      5   9999  3.79277E-02  3.01364E+01 -1.00000E+00  1.52903E-01
      21    -1     0     0   511   501  0.000000000E+00  0.000000000E+00  1.650262365E+02  1.650262365E+02  0.000000000E+00  0.00000E+00  9.000E+00
      21    -1     0     0   501   502  0.000000000E+00  0.000000000E+00 -2.732030958E+02  2.732030958E+02  0.000000000E+00  0.00000E+00  9.000E+00
      25     1     1     2     0     0  1.435130413E+01 -9.462626691E+01  4.162311613E+01  1.628421755E+02  1.250000000E+02  0.00000E+00  9.000E+00
      25     1     1     2     0     0  4.453808451E+00  1.181756441E+02 -1.677474227E+02  2.403112920E+02  1.250000000E+02  0.00000E+00  9.000E+00
      21     1     1     2   511   502 -1.880511258E+01 -2.354937721E+01  1.794744729E+01  3.507586478E+01  0.000000000E+00  0.00000E+00  9.000E+00
#rwgt            1           1   3.4271169079164450E-002           5      108356           0
</event>
<event>
      5   9999  3.79277E-02  6.62005E+01 -1.00000E+00  1.32460E-01
      21    -1     0     0   502   512  0.000000000E+00  0.000000000E+00  1.668243539E+02  1.668243539E+02  0.000000000E+00  0.00000E+00  9.000E+00
      21    -1     0     0   501   502  0.000000000E+00  0.000000000E+00 -4.687938477E+02  4.687938477E+02  0.000000000E+00  0.00000E+00  9.000E+00
      25     1     1     2     0     0  5.965165745E+01  9.102008032E+01 -2.314148471E+02  2.846415408E+02  1.250000000E+02  0.00000E+00  9.000E+00
      25     1     1     2     0     0  2.250834634E+00 -1.144846848E+02 -1.643913562E+02  2.361383647E+02  1.250000000E+02  0.00000E+00  9.000E+00
      21     1     1     2   501   512 -6.190249208E+01  2.346460445E+01  9.383670952E+01  1.148382961E+02  1.348699152E-06  0.00000E+00  9.000E+00
#rwgt            1           1   3.8035548506620019E-002           5      108556           0
</event>
<event>
      5   9999  3.79277E-02  3.70027E+01 -1.00000E+00  1.46970E-01
      21    -1     0     0   502   501  0.000000000E+00  0.000000000E+00  3.526107369E+01  3.526107369E+01  0.000000000E+00  0.00000E+00  9.000E+00
       2    -1     0     0   501     0  0.000000000E+00  0.000000000E+00 -1.854755295E+03  1.854755295E+03  0.000000000E+00  0.00000E+00  9.000E+00
      25     1     1     2     0     0  8.467490094E+01  4.076800789E+01 -3.947402262E+02  4.245900559E+02  1.250000000E+02  0.00000E+00  9.000E+00
      25     1     1     2     0     0 -5.697349417E+01 -6.530023190E+01 -2.685688193E+02  3.086491698E+02  1.250000000E+02  0.00000E+00  9.000E+00
       2     1     1     2   502     0 -2.770140677E+01  2.453222401E+01 -1.156185175E+03  1.156777143E+03  1.525878906E-05  0.00000E+00  9.000E+00
#rwgt            1           1   3.8461107118851576E-002           5      108719           0
</event>
<event>
      5   9999  3.79277E-02  1.75480E+02 -1.00000E+00  1.13756E-01
      21    -1     0     0   502   511  0.000000000E+00  0.000000000E+00  1.893822253E+03  1.893822253E+03  0.000000000E+00  0.00000E+00  9.000E+00
      21    -1     0     0   501   502  0.000000000E+00  0.000000000E+00 -1.060359697E+02  1.060359697E+02  0.000000000E+00  0.00000E+00  9.000E+00
      25     1     1     2     0     0  7.477233344E+01  3.323886666E+01 -5.880512663E+00  1.495169038E+02  1.250000000E+02  0.00000E+00  9.000E+00
      25     1     1     2     0     0 -1.755723205E+02 -1.768789022E+02  1.124185764E+03  1.158244542E+03  1.250000000E+02  0.00000E+00  9.000E+00
      21     1     1     2   501   511  1.007999871E+02  1.436400355E+02  6.694810318E+02  6.920967773E+02  1.078959322E-05  0.00000E+00  9.000E+00
#rwgt            1           1   3.8470636439492577E-002           5      108798           0
</event>
<event>
      5   9999 -5.19407E-02  1.05822E+02 -1.00000E+00  1.22732E-01
      21    -1     0     0   502   501  0.000000000E+00  0.000000000E+00  1.745367351E+03  1.745367351E+03  0.000000000E+00  0.00000E+00  9.000E+00
      21    -1     0     0   512   502  0.000000000E+00  0.000000000E+00 -3.798536157E+02  3.798536157E+02  0.000000000E+00  0.00000E+00  9.000E+00
      25     1     1     2     0     0  2.942310389E+02 -4.595890627E+02  2.391498700E+02  6.087788360E+02  1.250000000E+02  0.00000E+00  9.000E+00
      25     1     1     2     0     0 -1.888495538E+02  4.692401232E+02  1.249678225E+03  1.353946496E+03  1.250000000E+02  0.00000E+00  9.000E+00
      21     1     1     2   512   501 -1.053814851E+02 -9.651060462E+00 -1.233143591E+02  1.624956355E+02  2.336015456E-06  0.00000E+00  9.000E+00
#rwgt            1           1 -0.52739956569108914                5      108867           0
</event>
<event>
      5   9999  3.79277E-02  3.19039E+01 -1.00000E+00  1.51207E-01
       1    -1     0     0   502     0  0.000000000E+00  0.000000000E+00  4.787612484E+02  4.787612484E+02  0.000000000E+00  0.00000E+00  9.000E+00
      21    -1     0     0   501   502  0.000000000E+00  0.000000000E+00 -8.185704149E+02  8.185704149E+02  0.000000000E+00  0.00000E+00  9.000E+00
      25     1     1     2     0     0  6.981726708E+01 -2.412381860E+02 -4.868064176E+02  5.618503371E+02  1.250000000E+02  0.00000E+00  9.000E+00
      25     1     1     2     0     0 -6.008302161E+01  2.108555362E+02 -2.393454140E+02  3.478235959E+02  1.250000000E+02  0.00000E+00  9.000E+00
       1     1     1     2   501     0 -9.734245469E+00  3.038264975E+01  3.863426651E+02  3.876577302E+02  0.000000000E+00  0.00000E+00  9.000E+00
#rwgt            1           1   4.9066075703945750E-002           5      108965           0
</event>
<event>
      5   9999  3.79277E-02  1.04726E+01 -1.00000E+00  1.93467E-01
      21    -1     0     0   502   501  0.000000000E+00  0.000000000E+00  3.856077537E+02  3.856077537E+02  0.000000000E+00  0.00000E+00  9.000E+00
      21    -1     0     0   511   502  0.000000000E+00  0.000000000E+00 -9.110770665E+01  9.110770665E+01  0.000000000E+00  0.00000E+00  9.000E+00
      25     1     1     2     0     0  6.269823608E+00 -1.314777521E+02  1.663620300E+02  2.462255775E+02  1.250000000E+02  0.00000E+00  9.000E+00
      25     1     1     2     0     0 -3.061039218E+00  1.215088005E+02  1.326594985E+02  2.190828635E+02  1.250000000E+02  0.00000E+00  9.000E+00
      21     1     1     2   511   501 -3.208784391E+00  9.968951638E+00 -4.521481466E+00  1.140701927E+01  5.960464478E-08  0.00000E+00  9.000E+00
#rwgt            1           1   4.5857109269622422E-002           5      109181           0
</event>
<event>
      5   9999  3.79277E-02  9.97784E+01 -1.00000E+00  1.23871E-01
      21    -1     0     0   502   501  0.000000000E+00  0.000000000E+00  6.742632163E+02  6.742632163E+02  0.000000000E+00  0.00000E+00  9.000E+00
      21    -1     0     0   512   502  0.000000000E+00  0.000000000E+00 -1.236137670E+03  1.236137670E+03  0.000000000E+00  0.00000E+00  9.000E+00
      25     1     1     2     0     0 -1.457209623E+01 -2.035965983E+02  6.376976926E+01  2.477004325E+02  1.250000000E+02  0.00000E+00  9.000E+00
      25     1     1     2     0     0 -4.434588158E+01  1.230708565E+02  5.004707124E+02  5.321737751E+02  1.250000000E+02  0.00000E+00  9.000E+00
      21     1     1     2   512   501  5.891797781E+01  8.052574175E+01 -1.126114935E+03  1.130526678E+03  1.525878906E-05  0.00000E+00  9.000E+00
#rwgt            1           1   3.9104382102414854E-002           5      109461           0
</event>
<event>
      5   9999  3.79277E-02  1.30106E+02 -1.00000E+00  1.18896E-01
      21    -1     0     0   502   511  0.000000000E+00  0.000000000E+00  1.267929372E+03  1.267929372E+03  0.000000000E+00  0.00000E+00  9.000E+00
      21    -1     0     0   501   502  0.000000000E+00  0.000000000E+00 -1.601116387E+02  1.601116387E+02  0.000000000E+00  0.00000E+00  9.000E+00
      25     1     1     2     0     0  2.792397272E+02 -4.902145022E+01  2.079276399E+02  3.731445179E+02  1.250000000E+02  0.00000E+00  9.000E+00
      25     1     1     2     0     0 -3.305020382E+02 -7.056051771E+01  4.000498119E+02  5.384006277E+02  1.250000000E+02  0.00000E+00  9.000E+00
      21     1     1     2   501   511  5.126231093E+01  1.195819679E+02  4.998402814E+02  5.164958649E+02  9.344061824E-06  0.00000E+00  9.000E+00
#rwgt            1           1   3.6806194933408212E-002           5      109715           0
</event>
<event>
      5   9999  3.79277E-02  5.71333E+01 -1.00000E+00  1.35850E-01
      21    -1     0     0   502   501  0.000000000E+00  0.000000000E+00  1.357727414E+02  1.357727414E+02  0.000000000E+00  0.00000E+00  9.000E+00
      21    -1     0     0   501   512  0.000000000E+00  0.000000000E+00 -7.110764159E+02  7.110764159E+02  0.000000000E+00  0.00000E+00  9.000E+00
      25     1     1     2     0     0 -8.672952351E+01 -4.706820547E+01  7.025343445E+01  1.740631244E+02  1.250000000E+02  0.00000E+00  9.000E+00
      25     1     1     2     0     0  3.535015060E+01  2.208081483E+01 -4.734318551E+02  4.914264105E+02  1.250000000E+02  0.00000E+00  9.000E+00
      21     1     1     2   502   512  5.137937291E+01  2.498739064E+01 -1.721252538E+02  1.813596225E+02  1.907348633E-06  0.00000E+00  9.000E+00
#rwgt            1           1   5.6338459017391547E-002           5      109797           0
</event>
<event>
      5   9999  3.79277E-02  2.15585E+01 -1.00000E+00  1.63724E-01
      21    -1     0     0   502   511  0.000000000E+00  0.000000000E+00  1.028254502E+03  1.028254502E+03  0.000000000E+00  0.00000E+00  9.000E+00
      21    -1     0     0   501   502  0.000000000E+00  0.000000000E+00 -6.486049209E+01  6.486049209E+01  0.000000000E+00  0.00000E+00  9.000E+00
      25     1     1     2     0     0  5.568515548E+01  9.686716584E+01  8.149928467E+02  8.320591472E+02  1.250000000E+02  0.00000E+00  9.000E+00
      25     1     1     2     0     0 -7.092801476E+01 -1.121126404E+02  9.962134817E+01  2.077244339E+02  1.250000000E+02  0.00000E+00  9.000E+00
      21     1     1     2   501   511  1.524285928E+01  1.524547455E+01  4.877981495E+01  5.333141288E+01  0.000000000E+00  0.00000E+00  9.000E+00
#rwgt            2          11   9.5162523018022457E-003           5      109957           0
</event>
<event>
      5   9999 -3.79277E-02  9.28319E+01 -1.00000E+00  1.25298E-01
      21    -1     0     0   502   501  0.000000000E+00  0.000000000E+00  3.826871970E+02  3.826871970E+02  0.000000000E+00  0.00000E+00  9.000E+00
      21    -1     0     0   501   512  0.000000000E+00  0.000000000E+00 -2.522234145E+02  2.522234145E+02  0.000000000E+00  0.00000E+00  9.000E+00
      25     1     1     2     0     0 -1.264556999E+02 -1.043610353E+01 -6.514540188E+01  1.896546326E+02  1.250000000E+02  0.00000E+00  9.000E+00
      25     1     1     2     0     0  2.176114163E+02 -7.125312059E+00  2.354919434E+02  3.442193399E+02  1.250000000E+02  0.00000E+00  9.000E+00
      21     1     1     2   502   512 -9.115571637E+01  1.756141559E+01 -3.988275898E+01  1.010366389E+02  2.523185073E-06  0.00000E+00  9.000E+00
#rwgt            1           1  -8.4115939838552450E-002           5      110007           0
</event>
<event>
      5   9999  3.79277E-02  1.02741E+02 -1.00000E+00  1.23302E-01
      21    -1     0     0   502   511  0.000000000E+00  0.000000000E+00  3.919294393E+02  3.919294393E+02  0.000000000E+00  0.00000E+00  9.000E+00
      21    -1     0     0   501   502  0.000000000E+00  0.000000000E+00 -1.925903223E+02  1.925903223E+02  0.000000000E+00  0.00000E+00  9.000E+00
      25     1     1     2     0     0 -7.944672515E+01 -9.677933301E+01 -8.857271759E+01  1.978589087E+02  1.250000000E+02  0.00000E+00  9.000E+00
      25     1     1     2     0     0 -2.076098924E+01  7.410460363E+01  1.190457426E+02  1.889957666E+02  1.250000000E+02  0.00000E+00  9.000E+00
      21     1     1     2   501   511  1.002077144E+02  2.267472937E+01  1.688660919E+02  1.976650864E+02  0.000000000E+00  0.00000E+00  9.000E+00
#rwgt            1           1   3.4795901269809311E-002           5      110125           0
</event>
<event>
      5   9999  3.79277E-02  8.25443E+01 -1.00000E+00  1.27695E-01
      21    -1     0     0   502   501  0.000000000E+00  0.000000000E+00  4.550202882E+02  4.550202882E+02  0.000000000E+00  0.00000E+00  9.000E+00
       1    -1     0     0   501     0  0.000000000E+00  0.000000000E+00 -1.144566169E+03  1.144566169E+03  0.000000000E+00  0.00000E+00  9.000E+00
      25     1     1     2     0     0 -3.846373006E+02 -4.113372793E+02 -6.523049975E+02  8.707875861E+02  1.250000000E+02  0.00000E+00  9.000E+00
      25     1     1     2     0     0  3.452349684E+02  4.838701857E+02  4.905161780E+01  6.093837881E+02  1.250000000E+02  0.00000E+00  9.000E+00
       1     1     1     2   502     0  3.940233225E+01 -7.253290640E+01 -8.629250093E+01  1.194150829E+02  9.536743164E-07  0.00000E+00  9.000E+00
#rwgt            1           1   2.1296645473787183E-002           5      110208           0
</event>
<event>
      5   9999  3.79277E-02  4.04289E+01 -1.00000E+00  1.44553E-01
       2    -1     0     0   502     0  0.000000000E+00  0.000000000E+00  7.301900134E+01  7.301900134E+01  0.000000000E+00  0.00000E+00  9.000E+00
      21    -1     0     0   501   502  0.000000000E+00  0.000000000E+00 -1.009476239E+03  1.009476239E+03  0.000000000E+00  0.00000E+00  9.000E+00
      25     1     1     2     0     0 -1.277556044E+02 -6.507395559E+01 -8.002350855E+02  8.225310367E+02  1.250000000E+02  0.00000E+00  9.000E+00
      25     1     1     2     0     0  8.975399110E+01  5.127650491E+01 -1.461498896E+02  2.183342600E+02  1.250000000E+02  0.00000E+00  9.000E+00
       2     1     1     2   501     0  3.800161335E+01  1.379745067E+01  9.927737220E+00  4.162994389E+01  6.194296387E-07  0.00000E+00  9.000E+00
#rwgt            1           1   4.5295785589210304E-002           5      110333           0
</event>
<event>
      5   9999  3.79277E-02  1.16405E+01 -1.00000E+00  1.88428E-01
      21    -1     0     0   502   511  0.000000000E+00  0.000000000E+00  3.696705857E+01  3.696705857E+01  0.000000000E+00  0.00000E+00  9.000E+00
      21    -1     0     0   501   502  0.000000000E+00  0.000000000E+00 -1.298541227E+03  1.298541227E+03  0.000000000E+00  0.00000E+00  9.000E+00
      25     1     1     2     0     0  5.910534026E+01  1.559561995E+02 -4.603658403E+02  5.053488739E+02  1.250000000E+02  0.00000E+00  9.000E+00
      25     1     1     2     0     0 -5.148724908E+01 -1.471547191E+02 -7.860237864E+02  8.110264120E+02  1.250000000E+02  0.00000E+00  9.000E+00
      21     1     1     2   501   511 -7.618091177E+00 -8.801480485E+00 -1.518454200E+01  1.913299997E+01  1.685873940E-07  0.00000E+00  9.000E+00
#rwgt            1           1   3.6144069011096347E-002           5      110472           0
</event>
<event>
      5   9999  3.79277E-02  2.82492E+01 -1.00000E+00  1.54876E-01
      21    -1     0     0   502   501  0.000000000E+00  0.000000000E+00  5.581311064E+02  5.581311064E+02  0.000000000E+00  0.00000E+00  9.000E+00
      21    -1     0     0   501   512  0.000000000E+00  0.000000000E+00 -1.052954146E+03  1.052954146E+03  0.000000000E+00  0.00000E+00  9.000E+00
      25     1     1     2     0     0  1.988558090E+02  3.411743932E+02  1.780612320E+02  4.508596253E+02  1.250000000E+02  0.00000E+00  9.000E+00
      25     1     1     2     0     0 -1.878019126E+02 -3.671710816E+02  5.264769362E+01  4.341439176E+02  1.250000000E+02  0.00000E+00  9.000E+00
      21     1     1     2   502   512 -1.105389643E+01  2.599668840E+01 -7.255319653E+02  7.260817097E+02  1.078959322E-05  0.00000E+00  9.000E+00
#rwgt            1           1   3.5437717389245012E-002           5      110806           0
</event>
<event>
      5   9999 -4.22352E-02  3.61263E+01 -1.00000E+00  1.47638E-01
      21    -1     0     0   511   501  0.000000000E+00  0.000000000E+00  1.259949349E+03  1.259949349E+03  0.000000000E+00  0.00000E+00  9.000E+00
      21    -1     0     0   501   502  0.000000000E+00  0.000000000E+00 -9.435820237E+01  9.435820237E+01  0.000000000E+00  0.00000E+00  9.000E+00
      25     1     1     2     0     0 -2.060141998E+02 -7.950699836E+01  2.796502030E+02  3.776141541E+02  1.250000000E+02  0.00000E+00  9.000E+00
      25     1     1     2     0     0  2.241562749E+02  4.826641745E+01  3.359396011E+02  4.255068721E+02  1.250000000E+02  0.00000E+00  9.000E+00
      21     1     1     2   511   502 -1.814207501E+01  3.124058091E+01  5.500013427E+02  5.511865253E+02  7.629394531E-06  0.00000E+00  9.000E+00
#rwgt            1           1 -0.51663273817636346                5      110978           0
</event>
<event>
      5   9999  3.79277E-02  1.66217E+01 -1.00000E+00  1.73284E-01
      21    -1     0     0   502   501  0.000000000E+00  0.000000000E+00  2.385275648E+03  2.385275648E+03  0.000000000E+00  0.00000E+00  9.000E+00
      21    -1     0     0   512   502  0.000000000E+00  0.000000000E+00 -2.451029453E+01  2.451029453E+01  0.000000000E+00  0.00000E+00  9.000E+00
      25     1     1     2     0     0 -3.952803537E+01  1.788802486E+02  1.411953232E+03  1.429264684E+03  1.250000000E+02  0.00000E+00  9.000E+00
      25     1     1     2     0     0  2.345131471E+01 -1.831015952E+02  9.249695930E+02  9.514567285E+02  1.250000000E+02  0.00000E+00  9.000E+00
      21     1     1     2   512   501  1.607672066E+01  4.221346587E+00  2.384252869E+01  2.906452974E+01  4.768371582E-07  0.00000E+00  9.000E+00
#rwgt            1           1   8.0331279208170084E-002           5      111197           0
</event>
<event>
      5   9999  3.79277E-02  2.12435E+01 -1.00000E+00  1.64236E-01
      21    -1     0     0   502   501  0.000000000E+00  0.000000000E+00  3.536405576E+02  3.536405576E+02  0.000000000E+00  0.00000E+00  9.000E+00
      21    -1     0     0   501   511  0.000000000E+00  0.000000000E+00 -1.070541678E+02  1.070541678E+02  0.000000000E+00  0.00000E+00  9.000E+00
      25     1     1     2     0     0 -5.852479611E+01  9.753644943E+01  1.149073476E+02  2.043702749E+02  1.250000000E+02  0.00000E+00  9.000E+00
      25     1     1     2     0     0  7.944111192E+01 -1.012502386E+02  1.454895991E+02  2.309864163E+02  1.250000000E+02  0.00000E+00  9.000E+00
      21     1     1     2   502   511 -2.091631580E+01  3.713789127E+00 -1.381055690E+01  2.533803422E+01  2.920019320E-07  0.00000E+00  9.000E+00
#rwgt            1           1   4.4177291999959303E-002           5      111512           0
</event>
<event>
      5   9999  3.79277E-02  1.39154E+02 -1.00000E+00  1.17700E-01
      21    -1     0     0   512   501  0.000000000E+00  0.000000000E+00  2.704197472E+02  2.704197472E+02  0.000000000E+00  0.00000E+00  9.000E+00
      21    -1     0     0   501   502  0.000000000E+00  0.000000000E+00 -3.912919577E+02  3.912919577E+02  0.000000000E+00  0.00000E+00  9.000E+00
      25     1     1     2     0     0  3.256867165E+01 -7.744423297E+01  6.575991090E+01  1.643401761E+02  1.250000000E+02  0.00000E+00  9.000E+00
      25     1     1     2     0     0 -1.393030241E+01 -6.045575497E+01 -2.914640082E+02  3.231489126E+02  1.250000000E+02  0.00000E+00  9.000E+00
      21     1     1     2   512   502 -1.863836924E+01  1.378999879E+02  1.048318868E+02  1.742226161E+02  2.336015456E-06  0.00000E+00  9.000E+00
#rwgt            1           1   4.8459806589748571E-002           5      111721           0
</event>
<event>
      5   9999  3.79277E-02  2.08032E+01 -1.00000E+00  1.64970E-01
      21    -1     0     0   502   501  0.000000000E+00  0.000000000E+00  3.986149412E+01  3.986149412E+01  0.000000000E+00  0.00000E+00  9.000E+00
       1    -1     0     0   501     0  0.000000000E+00  0.000000000E+00 -1.479006686E+03  1.479006686E+03  0.000000000E+00  0.00000E+00  9.000E+00
      25     1     1     2     0     0 -1.431607637E+02 -1.740451959E+01 -3.232359359E+02  3.753723375E+02  1.250000000E+02  0.00000E+00  9.000E+00
      25     1     1     2     0     0  1.577630528E+02  2.587469489E+00 -7.364108659E+02  7.634276909E+02  1.250000000E+02  0.00000E+00  9.000E+00
       1     1     1     2   502     0 -1.460228914E+01  1.481705010E+01 -3.794983902E+02  3.800681517E+02  0.000000000E+00  0.00000E+00  9.000E+00
#rwgt            1           1   4.2167524294260100E-002           5      111789           0
</event>
<event>
      5   9999  3.79277E-02  8.93315E+01 -1.00000E+00  1.26072E-01
      21    -1     0     0   511   501  0.000000000E+00  0.000000000E+00  3.295485683E+02  3.295485683E+02  0.000000000E+00  0.00000E+00  9.000E+00
      21    -1     0     0   501   502  0.000000000E+00  0.000000000E+00 -2.136902060E+02  2.136902060E+02  0.000000000E+00  0.00000E+00  9.000E+00
      25     1     1     2     0     0  7.685976892E+01 -1.245810004E+02  1.803648948E+02  2.637884474E+02  1.250000000E+02  0.00000E+00  9.000E+00
      25     1     1     2     0     0  2.944680915E+00  8.443914329E+01 -1.024733793E+02  1.823853983E+02  1.250000000E+02  0.00000E+00  9.000E+00
      21     1     1     2   511   502 -7.980444984E+01  4.014185710E+01  3.796684678E+01  9.706492858E+01  1.907348633E-06  0.00000E+00  9.000E+00
#rwgt            1           1   3.7982004161328534E-002           5      111995           0
</event>
<event>
      5   9999  3.79277E-02  1.61447E+01 -1.00000E+00  1.74427E-01
      21    -1     0     0   502   501  0.000000000E+00  0.000000000E+00  3.787956609E+02  3.787956609E+02  0.000000000E+00  0.00000E+00  9.000E+00
      21    -1     0     0   501   512  0.000000000E+00  0.000000000E+00 -1.495337522E+02  1.495337522E+02  0.000000000E+00  0.00000E+00  9.000E+00
      25     1     1     2     0     0  1.721870187E+02  6.217855718E+01  1.068001799E+02  2.460606040E+02  1.250000000E+02  0.00000E+00  9.000E+00
      25     1     1     2     0     0 -1.816081926E+02 -7.528939091E+01  1.272128282E+02  2.654395066E+02  1.250000000E+02  0.00000E+00  9.000E+00
      21     1     1     2   502   512  9.421173826E+00  1.311083374E+01 -4.751099535E+00  1.682930255E+01  1.976862425E-07  0.00000E+00  9.000E+00
#rwgt            1           1   3.5331654789123174E-002           5      112075           0
</event>
<event>
      5   9999  3.79277E-02  2.44765E+02 -1.00000E+00  1.08545E-01
       1    -1     0     0   502     0  0.000000000E+00  0.000000000E+00  1.795062920E+03  1.795062920E+03  0.000000000E+00  0.00000E+00  9.000E+00
      21    -1     0     0   501   502  0.000000000E+00  0.000000000E+00 -4.705282076E+02  4.705282076E+02  0.000000000E+00  0.00000E+00  9.000E+00
      25     1     1     2     0     0 -1.452089381E+02  5.598782083E+00  4.111162597E+01  1.960411892E+02  1.250000000E+02  0.00000E+00  9.000E+00
      25     1     1     2     0     0 -5.082967699E+01 -1.521549733E+02 -3.570556574E+02  4.109118329E+02  1.250000000E+02  0.00000E+00  9.000E+00
       1     1     1     2   501     0  1.960386151E+02  1.465561912E+02  1.640478744E+03  1.658638106E+03  2.157918644E-05  0.00000E+00  9.000E+00
#rwgt            2          17   1.7416782842326710E-003           5      112619           0
</event>
<event>
      5   9999 -3.79277E-02  4.36857E+01 -1.00000E+00  1.42505E-01
       2    -1     0     0   502     0  0.000000000E+00  0.000000000E+00  9.081986388E+02  9.081986388E+02  0.000000000E+00  0.00000E+00  9.000E+00
      21    -1     0     0   501   502  0.000000000E+00  0.000000000E+00 -8.805190904E+01  8.805190904E+01  0.000000000E+00  0.00000E+00  9.000E+00
      25     1     1     2     0     0  1.212875235E+02  9.973546219E+01  1.820480883E+02  2.709692459E+02  1.250000000E+02  0.00000E+00  9.000E+00
      25     1     1     2     0     0 -9.297680310E+01 -1.330062653E+02  2.043658061E+02  2.893539964E+02  1.250000000E+02  0.00000E+00  9.000E+00
       2     1     1     2   501     0 -2.831072044E+01  3.327080308E+01  4.337328354E+02  4.359273055E+02  5.394796609E-06  0.00000E+00  9.000E+00
#rwgt            1           1  -5.2810701102395614E-002           5      112743           0
</event>
<event>
      5   9999 -3.79277E-02  6.01775E+01 -1.00000E+00  1.34635E-01
      21    -1     0     0   502   501  0.000000000E+00  0.000000000E+00  5.351729474E+02  5.351729474E+02  0.000000000E+00  0.00000E+00  9.000E+00
      21    -1     0     0   511   502  0.000000000E+00  0.000000000E+00 -1.013936557E+02  1.013936557E+02  0.000000000E+00  0.00000E+00  9.000E+00
      25     1     1     2     0     0  1.181883575E+02 -5.156898624E+01  1.354549012E+02  2.249463902E+02  1.250000000E+02  0.00000E+00  9.000E+00
      25     1     1     2     0     0 -1.751672728E+02  3.221087719E+01  2.648096939E+02  3.427393879E+02  1.250000000E+02  0.00000E+00  9.000E+00
      21     1     1     2   511   501  5.697891523E+01  1.935810905E+01  3.351469659E+01  6.888082501E+01  1.168007728E-06  0.00000E+00  9.000E+00
#rwgt            1           1  -9.5447065698142625E-002           5      112926           0
</event>
<event>
      5   9999  3.79277E-02  3.19953E+01 -1.00000E+00  1.51123E-01
      21    -1     0     0   502   501  0.000000000E+00  0.000000000E+00  4.708819922E+02  4.708819922E+02  0.000000000E+00  0.00000E+00  9.000E+00
      21    -1     0     0   501   512  0.000000000E+00  0.000000000E+00 -8.340288197E+01  8.340288197E+01  0.000000000E+00  0.00000E+00  9.000E+00
      25     1     1     2     0     0  1.209718218E+02  1.275247053E+00  2.194499575E+02  2.800340904E+02  1.250000000E+02  0.00000E+00  9.000E+00
      25     1     1     2     0     0 -1.221680809E+02 -3.324812874E+01  1.640518493E+02  2.420092711E+02  1.250000000E+02  0.00000E+00  9.000E+00
      21     1     1     2   502   512  1.196259077E+00  3.197288169E+01  3.977303537E+00  3.224151272E+01  5.247240323E-07  0.00000E+00  9.000E+00
#rwgt            1           1   3.8710992244109559E-002           5      113060           0
</event>
<event>
      5   9999  3.79277E-02  5.11632E+01 -1.00000E+00  1.38508E-01
      21    -1     0     0   502   501  0.000000000E+00  0.000000000E+00  1.662138155E+03  1.662138155E+03  0.000000000E+00  0.00000E+00  9.000E+00
      21    -1     0     0   501   511  0.000000000E+00  0.000000000E+00 -9.351418685E+01  9.351418685E+01  0.000000000E+00  0.00000E+00  9.000E+00
      25     1     1     2     0     0  1.332915421E+02  1.109174577E+02  1.733333521E+02  2.752067742E+02  1.250000000E+02  0.00000E+00  9.000E+00
      25     1     1     2     0     0 -1.297571958E+02 -5.987651516E+01  1.413458178E+03  1.426152569E+03  1.250000000E+02  0.00000E+00  9.000E+00
      21     1     1     2   502   511 -3.534346246E+00 -5.104094252E+01 -1.816756239E+01  5.429299899E+01  1.039242493E-06  0.00000E+00  9.000E+00
#rwgt            1           1   2.8632683661201874E-002           5      113267           0
</event>
<event>
      5   9999  3.79277E-02  9.30865E+01 -1.00000E+00  1.25244E-01
      21    -1     0     0   502   501  0.000000000E+00  0.000000000E+00  1.546509618E+02  1.546509618E+02  0.000000000E+00  0.00000E+00  9.000E+00
      21    -1     0     0   512   502  0.000000000E+00  0.000000000E+00 -3.753752275E+02  3.753752275E+02  0.000000000E+00  0.00000E+00  9.000E+00
      25     1     1     2     0     0 -8.194525392E+01 -2.717384237E+01  6.811566428E+01  1.664877956E+02  1.250000000E+02  0.00000E+00  9.000E+00
      25     1     1     2     0     0 -1.105955475E+01  2.327593669E+01 -1.637125046E+02  2.075833980E+02  1.250000000E+02  0.00000E+00  9.000E+00
      21     1     1     2   512   501  9.300480867E+01  3.897905685E+00 -1.251274254E+02  1.559549957E+02  3.015782986E-06  0.00000E+00  9.000E+00
#rwgt            1           1   4.8096708263577301E-002           5      113347           0
</event>
<event>
      5   9999  3.79277E-02  8.93180E+00 -1.00000E+00  2.01605E-01
      21    -1     0     0   511   501  0.000000000E+00  0.000000000E+00  1.210959645E+03  1.210959645E+03  0.000000000E+00  0.00000E+00  9.000E+00
      21    -1     0     0   501   502  0.000000000E+00  0.000000000E+00 -1.295594499E+02  1.295594499E+02  0.000000000E+00  0.00000E+00  9.000E+00
      25     1     1     2     0     0 -8.536140036E+01  1.794553742E+02  5.096176439E+00  2.348228503E+02  1.250000000E+02  0.00000E+00  9.000E+00
      25     1     1     2     0     0  7.819198697E+01 -1.847823391E+02  9.461097655E+02  9.751959742E+02  1.250000000E+02  0.00000E+00  9.000E+00
      21     1     1     2   511   502  7.169413383E+00  5.326964910E+00  1.301942536E+02  1.305002710E+02  1.907348633E-06  0.00000E+00  9.000E+00
#rwgt            1           1   3.8100827245439180E-002           5      113489           0
</event>
<event>
      5   9999  3.79277E-02  3.51790E+01 -1.00000E+00  1.48386E-01
      21    -1     0     0   502   512  0.000000000E+00  0.000000000E+00  1.625406175E+02  1.625406175E+02  0.000000000E+00  0.00000E+00  9.000E+00
      21    -1     0     0   501   502  0.000000000E+00  0.000000000E+00 -1.259624127E+03  1.259624127E+03  0.000000000E+00  0.00000E+00  9.000E+00
      25     1     1     2     0     0 -1.612125672E+02  2.000821034E+02 -5.263078023E+02  5.988716413E+02  1.250000000E+02  0.00000E+00  9.000E+00
      25     1     1     2     0     0  1.765545752E+02 -1.684248030E+02 -6.668354109E+02  7.209943811E+02  1.250000000E+02  0.00000E+00  9.000E+00
      21     1     1     2   501   512 -1.534200797E+01 -3.165730045E+01  9.605970373E+01  1.022987222E+02  4.862803949E-06  0.00000E+00  9.000E+00
#rwgt            1           1  0.12971875733352756                5      113886           0
</event>
<event>
      5   9999  3.79277E-02  9.88816E+01 -1.00000E+00  1.24048E-01
       3    -1     0     0   502     0  0.000000000E+00  0.000000000E+00  2.486390174E+03  2.486390174E+03  0.000000000E+00  0.00000E+00  9.000E+00
      21    -1     0     0   501   502  0.000000000E+00  0.000000000E+00 -1.460404470E+02  1.460404470E+02  0.000000000E+00  0.00000E+00  9.000E+00
      25     1     1     2     0     0  3.346794254E+02  1.352752114E+02  3.037473967E+02  4.880544863E+02  1.250000000E+02  0.00000E+00  9.000E+00
      25     1     1     2     0     0 -2.364822441E+02 -1.236614066E+02  3.616614972E+02  4.665190605E+02  1.250000000E+02  0.00000E+00  9.000E+00
       3     1     1     2   501     0 -9.819718122E+01 -1.161380476E+01  1.674940833E+03  1.677857074E+03  0.000000000E+00  0.00000E+00  9.000E+00
#rwgt            1           1   2.9937356353561078E-002           5      113987           0
</event>
<event>
      5   9999  3.79277E-02  3.14202E+01 -1.00000E+00  1.51658E-01
      21    -1     0     0   502   501  0.000000000E+00  0.000000000E+00  3.007435316E+02  3.007435316E+02  0.000000000E+00  0.00000E+00  9.000E+00
      21    -1     0     0   501   511  0.000000000E+00  0.000000000E+00 -2.750233475E+02  2.750233475E+02  0.000000000E+00  0.00000E+00  9.000E+00
      25     1     1     2     0     0  2.082205475E+02  1.987089424E+01  8.726976891E+01  2.588274742E+02  1.250000000E+02  0.00000E+00  9.000E+00
      25     1     1     2     0     0 -1.965809315E+02 -4.905564412E+01  1.054072608E+01  2.382994455E+02  1.250000000E+02  0.00000E+00  9.000E+00
      21     1     1     2   502   511 -1.163961606E+01  2.918474988E+01 -7.209031089E+01  7.863995938E+01  0.000000000E+00  0.00000E+00  9.000E+00
#rwgt            1           1   3.9234881260232300E-002           5      114089           0
</event>
<event>
      5   9999  3.79277E-02  6.47164E+01 -1.00000E+00  1.32970E-01
      21    -1     0     0   502   501  0.000000000E+00  0.000000000E+00  1.059103510E+03  1.059103510E+03  0.000000000E+00  0.00000E+00  9.000E+00
       1    -1     0     0   501     0  0.000000000E+00  0.000000000E+00 -5.228861945E+02  5.228861945E+02  0.000000000E+00  0.00000E+00  9.000E+00
      25     1     1     2     0     0 -3.253846998E+00 -1.322677387E+02  1.808077316E+02  2.565575531E+02  1.250000000E+02  0.00000E+00  9.000E+00
      25     1     1     2     0     0  4.363475060E+01  8.169507721E+01  8.310109180E+02  8.454479421E+02  1.250000000E+02  0.00000E+00  9.000E+00
       1     1     1     2   502     0 -4.038090360E+01  5.057266146E+01 -4.756013345E+02  4.799842090E+02  7.629394531E-06  0.00000E+00  9.000E+00
#rwgt            1           1   4.5945911806782813E-002           5      114204           0
</event>
<event>
      5   9999  3.79277E-02  1.52468E+02 -1.00000E+00  1.16113E-01
      21    -1     0     0   502   501  0.000000000E+00  0.000000000E+00  9.404215276E+02  9.404215276E+02  0.000000000E+00  0.00000E+00  9.000E+00
      21    -1     0     0   511   502  0.000000000E+00  0.000000000E+00 -1.447886126E+03  1.447886126E+03  0.000000000E+00  0.00000E+00  9.000E+00
      25     1     1     2     0     0  6.497435658E+02  3.560069092E+02  8.364540833E+01  7.559954861E+02  1.250000000E+02  0.00000E+00  9.000E+00
      25     1     1     2     0     0 -5.086850111E+02 -2.981356716E+02  3.378312934E+02  6.909416054E+02  1.250000000E+02  0.00000E+00  9.000E+00
      21     1     1     2   511   501 -1.410585547E+02 -5.787123761E+01 -9.289412998E+02  9.413705617E+02  0.000000000E+00  0.00000E+00  9.000E+00
#rwgt            1           1   2.4714770644422780E-002           5      114312           0
</event>
<event>
      5   9999  3.79277E-02  6.41924E+01 -1.00000E+00  1.33154E-01
      21    -1     0     0   512   501  0.000000000E+00  0.000000000E+00  8.462664013E+02  8.462664013E+02  0.000000000E+00  0.00000E+00  9.000E+00
      21    -1     0     0   501   502  0.000000000E+00  0.000000000E+00 -1.180041194E+02  1.180041194E+02  0.000000000E+00  0.00000E+00  9.000E+00
      25     1     1     2     0     0  3.062542861E+01 -1.826489698E+00 -4.883942509E+01  1.376646011E+02  1.250000000E+02  0.00000E+00  9.000E+00
      25     1     1     2     0     0  3.352242755E+01 -5.638348885E-01  1.582382303E+02  2.044221333E+02  1.250000000E+02  0.00000E+00  9.000E+00
      21     1     1     2   512   502 -6.414785616E+01  2.390324586E+00  6.188634767E+02  6.221837862E+02  1.078959322E-05  0.00000E+00  9.000E+00
#rwgt            1           1   5.2124358923258174E-002           5      114420           0
</event>
<event>
      5   9999  3.79277E-02  7.35565E+01 -1.00000E+00  1.30140E-01
      -2    -1     0     0     0   501  0.000000000E+00  0.000000000E+00  1.893272521E+02  1.893272521E+02  0.000000000E+00  0.00000E+00  9.000E+00
      21    -1     0     0   501   502  0.000000000E+00  0.000000000E+00 -6.909775660E+02  6.909775660E+02  0.000000000E+00  0.00000E+00  9.000E+00
      25     1     1     2     0     0  2.335882735E+02 -1.439852249E+02 -3.326557993E+02  4.489767335E+02  1.250000000E+02  0.00000E+00  9.000E+00
      25     1     1     2     0     0 -2.659180648E+02  7.791452194E+01 -1.852654688E+02  3.559935166E+02  1.250000000E+02  0.00000E+00  9.000E+00
      -2     1     1     2     0   502  3.232979133E+01  6.607070292E+01  1.627095418E+01  7.533456804E+01  1.994752947E-06  0.00000E+00  9.000E+00
#rwgt            1           1   3.4609736756037866E-002           5      114745           0
</event>
<event>
      5   9999  3.79277E-02  2.81029E+01 -1.00000E+00  1.55037E-01
      21    -1     0     0   502   501  0.000000000E+00  0.000000000E+00  1.619530442E+02  1.619530442E+02  0.000000000E+00  0.00000E+00  9.000E+00
       1    -1     0     0   501     0  0.000000000E+00  0.000000000E+00 -5.612818174E+02  5.612818174E+02  0.000000000E+00  0.00000E+00  9.000E+00
      25     1     1     2     0     0  3.984077433E+01 -7.122831078E+01 -3.820259855E+02  4.101580343E+02  1.250000000E+02  0.00000E+00  9.000E+00
      25     1     1     2     0     0 -1.185923756E+01  6.861989409E+01  1.114008211E+02  1.813407685E+02  1.250000000E+02  0.00000E+00  9.000E+00
       1     1     1     2   502     0 -2.798153677E+01  2.608416695E+00 -1.287036089E+02  1.317360587E+02  1.907348633E-06  0.00000E+00  9.000E+00
#rwgt            1           1   3.7957742068171610E-002           5      114894           0
</event>
<event>
      5   9999  3.79277E-02  9.40109E+01 -1.00000E+00  1.25046E-01
       2    -1     0     0   502     0  0.000000000E+00  0.000000000E+00  1.882288261E+03  1.882288261E+03  0.000000000E+00  0.00000E+00  9.000E+00
      21    -1     0     0   501   502  0.000000000E+00  0.000000000E+00 -3.973013456E+02  3.973013456E+02  0.000000000E+00  0.00000E+00  9.000E+00
      25     1     1     2     0     0  6.980499995E+01  2.711773418E+02 -1.468403033E+02  3.399955343E+02  1.250000000E+02  0.00000E+00  9.000E+00
      25     1     1     2     0     0  4.984875934E-01 -2.087636295E+02 -5.556125646E+01  2.495887712E+02  1.250000000E+02  0.00000E+00  9.000E+00
       2     1     1     2   501     0 -7.030348754E+01 -6.241371221E+01  1.687388475E+03  1.690005301E+03  0.000000000E+00  0.00000E+00  9.000E+00
#rwgt            1           1   3.7865786505130117E-002           5      114994           0
</event>
<event>
      5   9999  3.79277E-02  5.71842E+01 -1.00000E+00  1.35828E-01
      21    -1     0     0   502   501  0.000000000E+00  0.000000000E+00  2.276592414E+03  2.276592414E+03  0.000000000E+00  0.00000E+00  9.000E+00
      21    -1     0     0   511   502  0.000000000E+00  0.000000000E+00 -7.570336711E+02  7.570336711E+02  0.000000000E+00  0.00000E+00  9.000E+00
      25     1     1     2     0     0 -1.246976099E+00 -1.362799554E+02  1.288479397E+03  1.301682733E+03  1.250000000E+02  0.00000E+00  9.000E+00
      25     1     1     2     0     0 -4.905510745E+01  1.090819415E+02  9.727786978E+02  9.880428475E+02  1.250000000E+02  0.00000E+00  9.000E+00
      21     1     1     2   511   501  5.030208355E+01  2.719801394E+01 -7.416993521E+02  7.439005044E+02  1.078959322E-05  0.00000E+00  9.000E+00
#rwgt            1           1   9.1811606324881861E-002           5      115051           0
</event>
<event>
      5   9999  3.79277E-02  6.77985E+01 -1.00000E+00  1.31927E-01
      21    -1     0     0   512   501  0.000000000E+00  0.000000000E+00  2.285950409E+02  2.285950409E+02  0.000000000E+00  0.00000E+00  9.000E+00
      21    -1     0     0   501   502  0.000000000E+00  0.000000000E+00 -2.439964273E+02  2.439964273E+02  0.000000000E+00  0.00000E+00  9.000E+00
      25     1     1     2     0     0  1.442701919E+01  1.302423551E+02 -1.161074942E+02  2.151212685E+02  1.250000000E+02  0.00000E+00  9.000E+00
      25     1     1     2     0     0  4.647097916E+01 -1.004418412E+02  8.714849085E+01  1.883294317E+02  1.250000000E+02  0.00000E+00  9.000E+00
      21     1     1     2   512   502 -6.089799835E+01 -2.980051389E+01  1.355761691E+01  6.914076805E+01  1.460009660E-06  0.00000E+00  9.000E+00
#rwgt            1           1   4.0178126418079531E-002           5      115186           0
</event>
<event>
      5   9999  3.79277E-02  2.36328E+01 -1.00000E+00  1.60602E-01
      21    -1     0     0   502   501  0.000000000E+00  0.000000000E+00  1.652036453E+02  1.652036453E+02  0.000000000E+00  0.00000E+00  9.000E+00
      21    -1     0     0   501   511  0.000000000E+00  0.000000000E+00 -2.279465337E+02  2.279465337E+02  0.000000000E+00  0.00000E+00  9.000E+00
      25     1     1     2     0     0  5.433661179E+01  1.690650729E+01  3.674959988E+01  1.421753511E+02  1.250000000E+02  0.00000E+00  9.000E+00
      25     1     1     2     0     0 -5.131560438E+01 -4.034542625E+01  7.680724643E+00  1.412269033E+02  1.250000000E+02  0.00000E+00  9.000E+00
      21     1     1     2   502   511 -3.021007415E+00  2.343891896E+01 -1.071732129E+02  1.097479247E+02  1.348699152E-06  0.00000E+00  9.000E+00
#rwgt            1           1   4.0549899720084541E-002           5      115250           0
</event>
<event>
      5   9999 -3.79277E-02  1.27317E+02 -1.00000E+00  1.19287E-01
      21    -1     0     0   502   501  0.000000000E+00  0.000000000E+00  4.405964076E+02  4.405964076E+02  0.000000000E+00  0.00000E+00  9.000E+00
       4    -1     0     0   501     0  0.000000000E+00  0.000000000E+00 -3.293516775E+02  3.293516775E+02  0.000000000E+00  0.00000E+00  9.000E+00
      25     1     1     2     0     0  1.543525065E+02 -1.367675865E+02  1.404397375E+02  2.790669971E+02  1.250000000E+02  0.00000E+00  9.000E+00
      25     1     1     2     0     0 -3.727163723E+01  1.867835772E+02  1.487481568E+02  2.720814103E+02  1.250000000E+02  0.00000E+00  9.000E+00
       4     1     1     2   502     0 -1.170808693E+02 -5.001599069E+01 -1.779431642E+02  2.187996777E+02  1.907348633E-06  0.00000E+00  9.000E+00
#rwgt            1           1  -9.8465338105042724E-002           5      115403           0
</event>
<event>
      5   9999  3.79277E-02  4.02923E+00 -1.00000E+00  2.62727E-01
      21    -1     0     0   511   501  0.000000000E+00  0.000000000E+00  9.395383370E+01  9.395383370E+01  0.000000000E+00  0.00000E+00  9.000E+00
      21    -1     0     0   501   502  0.000000000E+00  0.000000000E+00 -4.759460140E+02  4.759460140E+02  0.000000000E+00  0.00000E+00  9.000E+00
      25     1     1     2     0     0  1.433804711E+02  3.727590885E+01 -1.219157785E+02  2.289888861E+02  1.250000000E+02  0.00000E+00  9.000E+00
      25     1     1     2     0     0 -1.473534022E+02 -3.794711748E+01 -2.676769091E+02  3.323084960E+02  1.250000000E+02  0.00000E+00  9.000E+00
      21     1     1     2   511   502  3.972931095E+00  6.712086262E-01  7.600507338E+00  8.602465595E+00  8.429369702E-08  0.00000E+00  9.000E+00
#rwgt            1           1   3.8499656913640115E-002           5      115603           0
</event>
<event>
      5   9999  3.79277E-02  6.43655E+01 -1.00000E+00  1.33093E-01
      21    -1     0     0   502   501  0.000000000E+00  0.000000000E+00  1.558324633E+02  1.558324633E+02  0.000000000E+00  0.00000E+00  9.000E+00
      21    -1     0     0   501   512  0.000000000E+00  0.000000000E+00 -1.264331234E+03  1.264331234E+03  0.000000000E+00  0.00000E+00  9.000E+00
      25     1     1     2     0     0 -1.041045353E+01  3.341630527E+02 -4.505894958E+02  5.748297287E+02  1.250000000E+02  0.00000E+00  9.000E+00
      25     1     1     2     0     0 -3.845615332E+01 -3.760554089E+02 -3.479536961E+02  5.287658469E+02  1.250000000E+02  0.00000E+00  9.000E+00
      21     1     1     2   502   512  4.886660685E+01  4.189235617E+01 -3.099555789E+02  3.165681217E+02  0.000000000E+00  0.00000E+00  9.000E+00
#rwgt            2          11   1.4703779817689467E-003           5      116055           0
</event>
<event>
      5   9999  3.79277E-02  3.26378E+01 -1.00000E+00  1.50540E-01
      21    -1     0     0   502   501  0.000000000E+00  0.000000000E+00  1.462011605E+03  1.462011605E+03  0.000000000E+00  0.00000E+00  9.000E+00
      21    -1     0     0   501   511  0.000000000E+00  0.000000000E+00 -3.284633732E+01  3.284633732E+01  0.000000000E+00  0.00000E+00  9.000E+00
      25     1     1     2     0     0  1.045674290E+02 -9.129053441E+01  1.022406861E+03  1.039331082E+03  1.250000000E+02  0.00000E+00  9.000E+00
      25     1     1     2     0     0 -7.672439134E+01  7.426139395E+01  3.773025845E+02  4.115624219E+02  1.250000000E+02  0.00000E+00  9.000E+00
      21     1     1     2   502   511 -2.784303769E+01  1.702914046E+01  2.945582222E+01  4.396443830E+01  6.743495762E-07  0.00000E+00  9.000E+00
#rwgt            1           1   6.0981599324183622E-002           5      116135           0
</event>
<event>
      5   9999  3.79277E-02  4.28458E+01 -1.00000E+00  1.43013E-01
      -3    -1     0     0     0   501  0.000000000E+00  0.000000000E+00  1.986033455E+02  1.986033455E+02  0.000000000E+00  0.00000E+00  9.000E+00
      21    -1     0     0   501   502  0.000000000E+00  0.000000000E+00 -4.105899350E+02  4.105899350E+02  0.000000000E+00  0.00000E+00  9.000E+00
      25     1     1     2     0     0 -6.898580055E+01 -1.274511112E+02 -1.967976073E+02  2.745125219E+02  1.250000000E+02  0.00000E+00  9.000E+00
      25     1     1     2     0     0  1.028299593E+02  1.537253727E+02 -9.617127451E+01  2.430625532E+02  1.250000000E+02  0.00000E+00  9.000E+00
      -3     1     1     2     0   502 -3.384415874E+01 -2.627426144E+01  8.098229235E+01  9.161820545E+01  9.536743164E-07  0.00000E+00  9.000E+00
#rwgt            1           1   3.6232612946269442E-002           5      116301           0
</event>
<event>
      5   9999  3.79277E-02  9.35271E+01 -1.00000E+00  1.25149E-01
      21    -1     0     0   511   501  0.000000000E+00  0.000000000E+00  3.508853766E+02  3.508853766E+02  0.000000000E+00  0.00000E+00  9.000E+00
      21    -1     0     0   501   502  0.000000000E+00  0.000000000E+00 -1.930272060E+02  1.930272060E+02  0.000000000E+00  0.00000E+00  9.000E+00
      25     1     1     2     0     0  1.132147905E+02  1.390321575E+01  1.961671463E+02  2.590703331E+02  1.250000000E+02  0.00000E+00  9.000E+00
      25     1     1     2     0     0 -1.968903200E+01 -1.340969915E+01 -1.090428763E+02  1.675793152E+02  1.250000000E+02  0.00000E+00  9.000E+00
      21     1     1     2   511   502 -9.352575847E+01 -4.935166018E-01  7.073390062E+01  1.172629343E+02  1.348699152E-06  0.00000E+00  9.000E+00
#rwgt            1           1   4.7510159895774111E-002           5      116424           0
</event>
<event>
      5   9999  3.79277E-02  2.31795E+01 -1.00000E+00  1.61250E-01
      21    -1     0     0   502   501  0.000000000E+00  0.000000000E+00  5.468720314E+01  5.468720314E+01  0.000000000E+00  0.00000E+00  9.000E+00
      21    -1     0     0   501   512  0.000000000E+00  0.000000000E+00 -1.391103529E+03  1.391103529E+03  0.000000000E+00  0.00000E+00  9.000E+00
      25     1     1     2     0     0  1.645723056E+02 -1.480650206E+01 -1.948022410E+02  2.843873931E+02  1.250000000E+02  0.00000E+00  9.000E+00
      25     1     1     2     0     0 -1.428560813E+02  6.701159380E+00 -1.037040751E+03  1.054291840E+03  1.250000000E+02  0.00000E+00  9.000E+00
      21     1     1     2   502   512 -2.171622427E+01  8.105342676E+00 -1.045733340E+02  1.071114988E+02  1.348699152E-06  0.00000E+00  9.000E+00
#rwgt            1           1   4.2686250137553804E-002           5      116559           0
</event>
<event>
      5   9999  3.79277E-02  1.97460E+01 -1.00000E+00  1.66828E-01
      21    -1     0     0   502   501  0.000000000E+00  0.000000000E+00  1.508791203E+02  1.508791203E+02  0.000000000E+00  0.00000E+00  9.000E+00
       1    -1     0     0   501     0  0.000000000E+00  0.000000000E+00 -4.147466565E+02  4.147466565E+02  0.000000000E+00  0.00000E+00  9.000E+00
      25     1     1     2     0     0 -6.544965732E+00 -1.030016357E+02 -9.711130953E+01  1.889650231E+02  1.250000000E+02  0.00000E+00  9.000E+00
      25     1     1     2     0     0  1.248930899E+01  1.218316761E+02  3.117062582E+01  1.777513658E+02  1.250000000E+02  0.00000E+00  9.000E+00
       1     1     1     2   502     0 -5.944343253E+00 -1.883004037E+01 -1.979268525E+02  1.989093878E+02  2.697398305E-06  0.00000E+00  9.000E+00
#rwgt            1           1   4.0005611335822346E-002           5      116750           0
</event>
<event>
      5   9999  3.79277E-02  2.69679E+01 -1.00000E+00  1.56325E-01
      21    -1     0     0   502   501  0.000000000E+00  0.000000000E+00  1.389921788E+02  1.389921788E+02  0.000000000E+00  0.00000E+00  9.000E+00
      21    -1     0     0   501   511  0.000000000E+00  0.000000000E+00 -5.695291875E+02  5.695291875E+02  0.000000000E+00  0.00000E+00  9.000E+00
      25     1     1     2     0     0 -1.412870060E+02 -2.603818043E+01 -2.616922479E+02  3.236477059E+02  1.250000000E+02  0.00000E+00  9.000E+00
      25     1     1     2     0     0  1.345593898E+02 -7.708967555E-02  2.835662186E+01  1.858368460E+02  1.250000000E+02  0.00000E+00  9.000E+00
      21     1     1     2   502   511  6.727616212E+00  2.611527010E+01 -1.972013826E+02  1.990368143E+02  2.697398305E-06  0.00000E+00  9.000E+00
#rwgt            1           1   3.9074445174814433E-002           5      117108           0
</event>
<event>
      5   9999  3.79277E-02  1.96641E+02 -1.00000E+00  1.11916E-01
      21    -1     0     0   502   512  0.000000000E+00  0.000000000E+00  5.219574792E+02  5.219574792E+02  0.000000000E+00  0.00000E+00  9.000E+00
      21    -1     0     0   501   502  0.000000000E+00  0.000000000E+00 -7.285037261E+02  7.285037261E+02  0.000000000E+00  0.00000E+00  9.000E+00
      25     1     1     2     0     0 -5.039415981E+01  7.762346513E+01 -6.113214848E+02  6.307962678E+02  1.250000000E+02  0.00000E+00  9.000E+00
      25     1     1     2     0     0 -7.260038731E+01 -2.310511237E+02  2.334452869E+02  3.588553190E+02  1.250000000E+02  0.00000E+00  9.000E+00
      21     1     1     2   501   512  1.229945471E+02  1.534276585E+02  1.713299510E+02  2.608096185E+02  3.814697266E-06  0.00000E+00  9.000E+00
#rwgt            2          11   2.4819010555054474E-003           5      117263           0
</event>
<event>
      5   9999  3.79277E-02  1.03875E+02 -1.00000E+00  1.23090E-01
      21    -1     0     0   511   501  0.000000000E+00  0.000000000E+00  3.091655546E+02  3.091655546E+02  0.000000000E+00  0.00000E+00  9.000E+00
      21    -1     0     0   501   502  0.000000000E+00  0.000000000E+00 -2.216827797E+02  2.216827797E+02  0.000000000E+00  0.00000E+00  9.000E+00
      25     1     1     2     0     0 -2.121406403E+01 -5.054534378E+01 -1.074616388E+02  1.737177945E+02  1.250000000E+02  0.00000E+00  9.000E+00
      25     1     1     2     0     0  1.145312534E+02  9.617440707E+01  1.363040753E+02  2.378460122E+02  1.250000000E+02  0.00000E+00  9.000E+00
      21     1     1     2   511   502 -9.331718937E+01 -4.562906330E+01  5.864033851E+01  1.192845277E+02  0.000000000E+00  0.00000E+00  9.000E+00
#rwgt            1           1   4.3779807527592141E-002           5      117328           0
</event>
<event>
      5   9999  3.79277E-02  3.91921E+01 -1.00000E+00  1.45392E-01
      21    -1     0     0   502   501  0.000000000E+00  0.000000000E+00  2.100114636E+02  2.100114636E+02  0.000000000E+00  0.00000E+00  9.000E+00
      21    -1     0     0   512   502  0.000000000E+00  0.000000000E+00 -3.952953515E+02  3.952953515E+02  0.000000000E+00  0.00000E+00  9.000E+00
      25     1     1     2     0     0  2.188035804E+00 -2.279400908E+02 -3.991801651E+01  2.630207606E+02  1.250000000E+02  0.00000E+00  9.000E+00
      25     1     1     2     0     0  3.641470784E+01  2.347112103E+02 -1.120733122E+02  2.908621847E+02  1.250000000E+02  0.00000E+00  9.000E+00
      21     1     1     2   512   501 -3.860274365E+01 -6.771119500E+00 -3.329255924E+01  5.142386972E+01  4.768371582E-07  0.00000E+00  9.000E+00
#rwgt            1           1   3.8999943395246275E-002           5      117396           0
</event>
<event>
      5   9999  3.79277E-02  1.81564E+01 -1.00000E+00  1.69911E-01
      21    -1     0     0   502   501  0.000000000E+00  0.000000000E+00  2.574448639E+02  2.574448639E+02  0.000000000E+00  0.00000E+00  9.000E+00
      21    -1     0     0   501   511  0.000000000E+00  0.000000000E+00 -2.695366007E+02  2.695366007E+02  0.000000000E+00  0.00000E+00  9.000E+00
      25     1     1     2     0     0 -4.569611918E+01 -1.637763560E+02 -1.075972399E+02  2.368818189E+02  1.250000000E+02  0.00000E+00  9.000E+00
      25     1     1     2     0     0  2.828325791E+01  1.586336931E+02  1.364067955E+02  2.453495570E+02  1.250000000E+02  0.00000E+00  9.000E+00
      21     1     1     2   502   511  1.741286127E+01  5.142662910E+00 -4.090129243E+01  4.475008874E+01  0.000000000E+00  0.00000E+00  9.000E+00
#rwgt            1           1   2.9701650754003519E-002           5      117774           0
</event>
<event>
      5   9999  3.79277E-02  9.17327E+01 -1.00000E+00  1.25537E-01
      21    -1     0     0   502   512  0.000000000E+00  0.000000000E+00  6.063645203E+02  6.063645203E+02  0.000000000E+00  0.00000E+00  9.000E+00
      21    -1     0     0   501   502  0.000000000E+00  0.000000000E+00 -1.805568711E+02  1.805568711E+02  0.000000000E+00  0.00000E+00  9.000E+00
      25     1     1     2     0     0 -1.372181561E+02 -1.456917631E+02 -9.378717961E+00  2.361522232E+02  1.250000000E+02  0.00000E+00  9.000E+00
      25     1     1     2     0     0  1.886536445E+02  6.973595251E+01  3.657528371E+02  4.357217443E+02  1.250000000E+02  0.00000E+00  9.000E+00
      21     1     1     2   501   512 -5.143548839E+01  7.595581060E+01  6.943353012E+01  1.150474238E+02  1.651812370E-06  0.00000E+00  9.000E+00
#rwgt            1           1   4.2347667532008165E-002           5      117953           0
</event>
<event>
      5   9999  3.79277E-02  1.15712E+02 -1.00000E+00  1.21043E-01
      21    -1     0     0   502   501  0.000000000E+00  0.000000000E+00  8.650668877E+01  8.650668877E+01  0.000000000E+00  0.00000E+00  9.000E+00
      21    -1     0     0   501   511  0.000000000E+00  0.000000000E+00 -1.453751987E+03  1.453751987E+03  0.000000000E+00  0.00000E+00  9.000E+00
      25     1     1     2     0     0 -1.458690443E+01 -9.517659807E+01 -4.437908057E+01  1.639081004E+02  1.250000000E+02  0.00000E+00  9.000E+00
      25     1     1     2     0     0  1.261342697E+02  1.259403948E+02 -4.993422219E+02  5.447370849E+02  1.250000000E+02  0.00000E+00  9.000E+00
      21     1     1     2   502   511 -1.115473653E+02 -3.076379677E+01 -8.235239954E+02  8.316134901E+02  1.525878906E-05  0.00000E+00  9.000E+00
#rwgt            1           1   3.6359943602158613E-002           5      118162           0
</event>
<event>
      5   9999  3.79277E-02  4.80077E+01 -1.00000E+00  1.40091E-01
      21    -1     0     0   512   501  0.000000000E+00  0.000000000E+00  1.556528572E+02  1.556528572E+02  0.000000000E+00  0.00000E+00  9.000E+00
      21    -1     0     0   501   502  0.000000000E+00  0.000000000E+00 -4.883146120E+02  4.883146120E+02  0.000000000E+00  0.00000E+00  9.000E+00
      25     1     1     2     0     0  1.786888339E+02 -8.766949449E+01 -1.961414435E+02  3.061243301E+02  1.250000000E+02  0.00000E+00  9.000E+00
      25     1     1     2     0     0 -2.201460041E+02  6.346120344E+01 -1.135438789E+02  2.846204488E+02  1.250000000E+02  0.00000E+00  9.000E+00
      21     1     1     2   512   502  4.145717016E+01  2.420829106E+01 -2.297643240E+01  5.322269027E+01  0.000000000E+00  0.00000E+00  9.000E+00
#rwgt            1           1   3.6843087010050665E-002           5      118495           0
</event>
<event>
      5   9999  3.79277E-02  5.06867E+00 -1.00000E+00  2.37486E-01
      21    -1     0     0   502   511  0.000000000E+00  0.000000000E+00  2.968807138E+02  2.968807138E+02  0.000000000E+00  0.00000E+00  9.000E+00
      21    -1     0     0   501   502  0.000000000E+00  0.000000000E+00 -3.036106601E+02  3.036106601E+02  0.000000000E+00  0.00000E+00  9.000E+00
      25     1     1     2     0     0 -1.484617523E+02  5.568098446E+01 -1.733729620E+02  2.661286303E+02  1.250000000E+02  0.00000E+00  9.000E+00
      25     1     1     2     0     0  1.480646598E+02 -5.062789236E+01  3.583769179E+01  2.034592517E+02  1.250000000E+02  0.00000E+00  9.000E+00
      21     1     1     2   501   511  3.970924989E-01 -5.053092105E+00  1.308053239E+02  1.309034919E+02  0.000000000E+00  0.00000E+00  9.000E+00
#rwgt            1           1   4.1662427104081155E-002           5      118646           0
</event>
<event>
      5   9999  3.79277E-02  8.69883E+01 -1.00000E+00  1.26613E-01
      21    -1     0     0   512   501  0.000000000E+00  0.000000000E+00  9.683789569E+01  9.683789569E+01  0.000000000E+00  0.00000E+00  9.000E+00
      21    -1     0     0   501   502  0.000000000E+00  0.000000000E+00 -1.049046407E+03  1.049046407E+03  0.000000000E+00  0.00000E+00  9.000E+00
      25     1     1     2     0     0  1.040625724E+02 -1.995673968E+02 -7.253875520E+02  7.697196018E+02  1.250000000E+02  0.00000E+00  9.000E+00
      25     1     1     2     0     0 -1.266872714E+02  1.155727843E+02 -1.474260292E+02  2.583915001E+02  1.250000000E+02  0.00000E+00  9.000E+00
      21     1     1     2   512   502  2.262469903E+01  8.399461252E+01 -7.939493051E+01  1.177732012E+02  9.536743164E-07  0.00000E+00  9.000E+00
#rwgt            1           1   4.3631789015478879E-002           5      119147           0
</event>
<event>
      5   9999 -3.79277E-02  2.59526E+01 -1.00000E+00  1.57544E-01
      21    -1     0     0   502   501  0.000000000E+00  0.000000000E+00  6.492067750E+01  6.492067750E+01  0.000000000E+00  0.00000E+00  9.000E+00
      21    -1     0     0   511   502  0.000000000E+00  0.000000000E+00 -1.015661367E+03  1.015661367E+03  0.000000000E+00  0.00000E+00  9.000E+00
      25     1     1     2     0     0 -7.259896337E+01  1.791523900E+02 -2.438693667E+02  3.353557161E+02  1.250000000E+02  0.00000E+00  9.000E+00
      25     1     1     2     0     0  6.373380981E+01 -1.547608648E+02 -6.028853823E+02  6.380507096E+02  1.250000000E+02  0.00000E+00  9.000E+00
      21     1     1     2   511   501  8.865153558E+00 -2.439152522E+01 -1.039859409E+02  1.071756192E+02  1.907348633E-06  0.00000E+00  9.000E+00
#rwgt            1           1  -7.1269516505144487E-002           5      119262           0
</event>
<event>
      5   9999  3.79277E-02  2.11406E+01 -1.00000E+00  1.64406E-01
      21    -1     0     0   502   512  0.000000000E+00  0.000000000E+00  4.723585251E+02  4.723585251E+02  0.000000000E+00  0.00000E+00  9.000E+00
      21    -1     0     0   501   502  0.000000000E+00  0.000000000E+00 -1.526319057E+03  1.526319057E+03  0.000000000E+00  0.00000E+00  9.000E+00
      25     1     1     2     0     0  1.855233524E+02  6.119715488E+01 -8.754442238E+02  9.056442983E+02  1.250000000E+02  0.00000E+00  9.000E+00
      25     1     1     2     0     0 -1.698713532E+02 -4.698666310E+01 -6.171537624E+02  6.538866795E+02  1.250000000E+02  0.00000E+00  9.000E+00
      21     1     1     2   501   512 -1.565199925E+01 -1.421049178E+01  4.386374547E+02  4.391466040E+02  9.344061824E-06  0.00000E+00  9.000E+00
#rwgt            1           1   4.5926125163125178E-002           5      119397           0
</event>
<event>
      5   9999  3.79277E-02  2.64459E+02 -1.00000E+00  1.07402E-01
      21    -1     0     0   502   501  0.000000000E+00  0.000000000E+00  2.514418276E+03  2.514418276E+03  0.000000000E+00  0.00000E+00  9.000E+00
      21    -1     0     0   501   511  0.000000000E+00  0.000000000E+00 -7.273488018E+01  7.273488018E+01  0.000000000E+00  0.00000E+00  9.000E+00
      25     1     1     2     0     0 -1.203936965E+01 -3.893194580E+01  1.325600860E+03  1.332104831E+03  1.250000000E+02  0.00000E+00  9.000E+00
      25     1     1     2     0     0 -2.390457506E+02  1.219657238E+02  7.232194483E+02  7.814664926E+02  1.250000000E+02  0.00000E+00  9.000E+00
      21     1     1     2   502   511  2.510851202E+02 -8.303377803E+01  3.928630875E+02  4.735818318E+02  1.078959322E-05  0.00000E+00  9.000E+00
#rwgt            2          11   9.7990865032573948E-004           5      119644           0
</event>
<event>
      5   9999  3.79277E-02  1.13860E+01 -1.00000E+00  1.89458E-01
      21    -1     0     0   512   501  0.000000000E+00  0.000000000E+00  2.697198180E+02  2.697198180E+02  0.000000000E+00  0.00000E+00  9.000E+00
      21    -1     0     0   501   502  0.000000000E+00  0.000000000E+00 -1.628484562E+02  1.628484562E+02  0.000000000E+00  0.00000E+00  9.000E+00
      25     1     1     2     0     0  8.368592337E+01 -7.393044159E+01  1.108691533E+02  2.009627157E+02  1.250000000E+02  0.00000E+00  9.000E+00
      25     1     1     2     0     0 -7.932113287E+01  8.444664691E+01 -5.520119938E+01  1.791514742E+02  1.250000000E+02  0.00000E+00  9.000E+00
      21     1     1     2   512   502 -4.364790493E+00 -1.051620532E+01  5.120340792E+01  5.245408424E+01  0.000000000E+00  0.00000E+00  9.000E+00
#rwgt            1           1   3.2947553647743780E-002           5      119739           0
</event>
<event>
      5   9999  3.79277E-02  2.93882E+01 -1.00000E+00  1.53664E-01
      21    -1     0     0   502   501  0.000000000E+00  0.000000000E+00  2.165764939E+02  2.165764939E+02  0.000000000E+00  0.00000E+00  9.000E+00
      21    -1     0     0   511   502  0.000000000E+00  0.000000000E+00 -1.803682414E+02  1.803682414E+02  0.000000000E+00  0.00000E+00  9.000E+00
      25     1     1     2     0     0 -4.436101502E+01  9.822049247E+01  1.166855981E+02  2.021279140E+02  1.250000000E+02  0.00000E+00  9.000E+00
      25     1     1     2     0     0  3.811496139E+01 -6.950371031E+01 -6.805444739E+01  1.629107849E+02  1.250000000E+02  0.00000E+00  9.000E+00
      21     1     1     2   511   501  6.246053632E+00 -2.871678216E+01 -1.242289813E+01  3.190603644E+01  3.371747881E-07  0.00000E+00  9.000E+00
#rwgt            1           1   4.7778937126779136E-002           5      119949           0
</event>
<event>
      5   9999  3.79277E-02  4.07594E+01 -1.00000E+00  1.44335E-01
      21    -1     0     0   502   512  0.000000000E+00  0.000000000E+00  1.085606224E+02  1.085606224E+02  0.000000000E+00  0.00000E+00  9.000E+00
      21    -1     0     0   501   502  0.000000000E+00  0.000000000E+00 -1.243179508E+03  1.243179508E+03  0.000000000E+00  0.00000E+00  9.000E+00
      25     1     1     2     0     0 -6.622760166E+01 -2.310227523E+01 -1.086714825E+03  1.096126781E+03  1.250000000E+02  0.00000E+00  9.000E+00
      25     1     1     2     0     0  1.068669945E+02  2.622769388E+01 -9.627453544E+01  1.923596439E+02  1.250000000E+02  0.00000E+00  9.000E+00
      21     1     1     2   501   512 -4.063939279E+01 -3.125418654E+00  4.837047428E+01  6.325370558E+01  2.023048729E-06  0.00000E+00  9.000E+00
#rwgt            1           1   3.7677095823642606E-002           5      120116           0
</event>
<event>
      5   9999  3.79277E-02  2.52505E+02 -1.00000E+00  1.08082E-01
      21    -1     0     0   502   501  0.000000000E+00  0.000000000E+00  7.357180310E+02  7.357180310E+02  0.000000000E+00  0.00000E+00  9.000E+00
      21    -1     0     0   501   511  0.000000000E+00  0.000000000E+00 -4.626489287E+02  4.626489287E+02  0.000000000E+00  0.00000E+00  9.000E+00
      25     1     1     2     0     0 -4.286034318E+00 -1.073614648E+01 -1.353634244E+02  1.846128154E+02  1.250000000E+02  0.00000E+00  9.000E+00
      25     1     1     2     0     0 -2.459228363E+02 -2.324152499E+01  6.234187798E+02  6.821247576E+02  1.250000000E+02  0.00000E+00  9.000E+00
      21     1     1     2   502   511  2.502088706E+02  3.397767147E+01 -2.149862531E+02  3.316293867E+02  2.697398305E-06  0.00000E+00  9.000E+00
#rwgt            2          11   1.6682309242631161E-003           5      120265           0
</event>
<event>
      5   9999  3.79277E-02  5.67666E+01 -1.00000E+00  1.36002E-01
      21    -1     0     0   502   501  0.000000000E+00  0.000000000E+00  2.470687945E+02  2.470687945E+02  0.000000000E+00  0.00000E+00  9.000E+00
       2    -1     0     0   501     0  0.000000000E+00  0.000000000E+00 -3.902241928E+02  3.902241928E+02  0.000000000E+00  0.00000E+00  9.000E+00
      25     1     1     2     0     0  5.093887823E+01  2.083439444E+01 -5.044447859E+01  1.455970011E+02  1.250000000E+02  0.00000E+00  9.000E+00
      25     1     1     2     0     0 -1.068139234E+02 -3.085591018E+01  1.607198993E+02  2.319853173E+02  1.250000000E+02  0.00000E+00  9.000E+00
       2     1     1     2   502     0  5.587504519E+01  1.002151575E+01 -2.534308191E+02  2.597106688E+02  2.697398305E-06  0.00000E+00  9.000E+00
#rwgt            1           1   4.3760221853121721E-002           5      120285           0
</event>
<event>
      5   9999  3.79277E-02  8.93597E+00 -1.00000E+00  2.01580E-01
      21    -1     0     0   502   511  0.000000000E+00  0.000000000E+00  9.200291073E+01  9.200291073E+01  0.000000000E+00  0.00000E+00  9.000E+00
      21    -1     0     0   501   502  0.000000000E+00  0.000000000E+00 -5.926175029E+02  5.926175029E+02  0.000000000E+00  0.00000E+00  9.000E+00
      25     1     1     2     0     0 -1.429851167E+02 -2.106505558E+01 -2.505921489E+02  3.151347414E+02  1.250000000E+02  0.00000E+00  9.000E+00
      25     1     1     2     0     0  1.436184718E+02  1.215155543E+01 -2.796551209E+02  3.385349500E+02  1.250000000E+02  0.00000E+00  9.000E+00
      21     1     1     2   501   511 -6.333551176E-01  8.913500145E+00  2.963267758E+01  3.095072219E+01  8.920806376E-07  0.00000E+00  9.000E+00
#rwgt            1           1   4.5473213041373368E-002           5      120509           0
</event>
<event>
      5   9999  3.79277E-02  1.38528E+01 -1.00000E+00  1.80702E-01
      21    -1     0     0   502   512  0.000000000E+00  0.000000000E+00  1.800353184E+02  1.800353184E+02  0.000000000E+00  0.00000E+00  9.000E+00
      21    -1     0     0   501   502  0.000000000E+00  0.000000000E+00 -2.687150162E+02  2.687150162E+02  0.000000000E+00  0.00000E+00  9.000E+00
      25     1     1     2     0     0 -9.577297525E+00 -1.393150974E+02 -1.367735695E+02  2.320181681E+02  1.250000000E+02  0.00000E+00  9.000E+00
      25     1     1     2     0     0  7.315047870E-01  1.286543417E+02  1.399392174E+01  1.799258308E+02  1.250000000E+02  0.00000E+00  9.000E+00
      21     1     1     2   501   512  8.845792738E+00  1.066075570E+01  3.409995003E+01  3.680633578E+01  0.000000000E+00  0.00000E+00  9.000E+00
#rwgt            1           1   4.3076974660734131E-002           5      120838           0
</event>
<event>
      5   9999  3.79277E-02  5.21648E+01 -1.00000E+00  1.38033E-01
      21    -1     0     0   502   501  0.000000000E+00  0.000000000E+00  1.662162833E+02  1.662162833E+02  0.000000000E+00  0.00000E+00  9.000E+00
      21    -1     0     0   511   502  0.000000000E+00  0.000000000E+00 -3.041451607E+02  3.041451607E+02  0.000000000E+00  0.00000E+00  9.000E+00
      25     1     1     2     0     0  8.486282670E+01 -1.108513479E+02  4.480688849E+01  1.926716844E+02  1.250000000E+02  0.00000E+00  9.000E+00
      25     1     1     2     0     0 -4.140436825E+01  8.199774385E+01 -1.518109306E+02  2.170472538E+02  1.250000000E+02  0.00000E+00  9.000E+00
      21     1     1     2   511   501 -4.345845845E+01  2.885360408E+01 -3.092483525E+01  6.064250584E+01  5.840038640E-07  0.00000E+00  9.000E+00
#rwgt            1           1   3.9178865194878877E-002           5      120992           0
</event>
<event>
      5   9999  5.96339E-02  1.68016E+01 -1.00000E+00  1.72865E-01
      21    -1     0     0   502   501  0.000000000E+00  0.000000000E+00  1.623597480E+03  1.623597480E+03  0.000000000E+00  0.00000E+00  9.000E+00
      21    -1     0     0   512   502  0.000000000E+00  0.000000000E+00 -2.422655489E+02  2.422655489E+02  0.000000000E+00  0.00000E+00  9.000E+00
      25     1     1     2     0     0  3.372565187E+02  3.031318155E+02  1.048097790E+03  1.148810182E+03  1.250000000E+02  0.00000E+00  9.000E+00
      25     1     1     2     0     0 -3.207105696E+02 -3.002119602E+02  4.249258465E+02  6.238344857E+02  1.250000000E+02  0.00000E+00  9.000E+00
      21     1     1     2   512   501 -1.654594904E+01 -2.919855310E+00 -9.169170545E+01  9.321836103E+01  1.348699152E-06  0.00000E+00  9.000E+00
#rwgt            1           1   1.8907041712954038                5      121114           0
</event>
<event>
      5   9999  3.79277E-02  8.86333E+01 -1.00000E+00  1.26232E-01
      21    -1     0     0   502   501  0.000000000E+00  0.000000000E+00  4.469744463E+02  4.469744463E+02  0.000000000E+00  0.00000E+00  9.000E+00
      21    -1     0     0   511   502  0.000000000E+00  0.000000000E+00 -7.765156507E+02  7.765156507E+02  0.000000000E+00  0.00000E+00  9.000E+00
      25     1     1     2     0     0 -9.807758159E+01  1.820099993E+02  7.400743160E+01  2.526835012E+02  1.250000000E+02  0.00000E+00  9.000E+00
      25     1     1     2     0     0  1.126163890E+02 -9.457725956E+01  2.474391308E+02  3.138127348E+02  1.250000000E+02  0.00000E+00  9.000E+00
      21     1     1     2   511   501 -1.453880741E+01 -8.743273974E+01 -6.509877668E+02  6.569938610E+02  0.000000000E+00  0.00000E+00  9.000E+00
#rwgt            1           1   3.7775815308189138E-002           5      121471           0
</event>
<event>
      5   9999  3.79277E-02  3.66863E+01 -1.00000E+00  1.47208E-01
      21    -1     0     0   502   501  0.000000000E+00  0.000000000E+00  2.760636900E+02  2.760636900E+02  0.000000000E+00  0.00000E+00  9.000E+00
      21    -1     0     0   501   512  0.000000000E+00  0.000000000E+00 -1.469610332E+02  1.469610332E+02  0.000000000E+00  0.00000E+00  9.000E+00
      25     1     1     2     0     0  2.438686962E+01 -5.519579524E+01 -2.841175145E+01  1.416810603E+02  1.250000000E+02  0.00000E+00  9.000E+00
      25     1     1     2     0     0 -4.975533831E+01  8.169727270E+01  1.793711363E+02  2.386399854E+02  1.250000000E+02  0.00000E+00  9.000E+00
      21     1     1     2   502   512  2.536846868E+01 -2.650147746E+01 -2.185672815E+01  4.270367755E+01  5.331201500E-07  0.00000E+00  9.000E+00
#rwgt            1           1   3.8725276215433611E-002           5      121523           0
</event>
<event>
      5   9999  3.79277E-02  4.57428E+01 -1.00000E+00  1.41317E-01
      21    -1     0     0   511   501  0.000000000E+00  0.000000000E+00  6.738999290E+02  6.738999290E+02  0.000000000E+00  0.00000E+00  9.000E+00
      21    -1     0     0   501   502  0.000000000E+00  0.000000000E+00 -1.616835022E+02  1.616835022E+02  0.000000000E+00  0.00000E+00  9.000E+00
      25     1     1     2     0     0  9.853460142E+01 -2.716996479E+02  2.851692475E+02  4.248249828E+02  1.250000000E+02  0.00000E+00  9.000E+00
      25     1     1     2     0     0 -1.258010716E+02  2.349717311E+02  1.795690896E+02  3.448299320E+02  1.250000000E+02  0.00000E+00  9.000E+00
      21     1     1     2   511   502  2.726647015E+01  3.672791672E+01  4.747808983E+01  6.592851640E+01  6.743495762E-07  0.00000E+00  9.000E+00
#rwgt            2          11   4.2359523121094159E-003           5      121675           0
</event>
<event>
      5   9999  3.79277E-02  1.92860E+01 -1.00000E+00  1.67682E-01
      21    -1     0     0   502   501  0.000000000E+00  0.000000000E+00  1.811222157E+03  1.811222157E+03  0.000000000E+00  0.00000E+00  9.000E+00
      21    -1     0     0   512   502  0.000000000E+00  0.000000000E+00 -4.365195885E+01  4.365195885E+01  0.000000000E+00  0.00000E+00  9.000E+00
      25     1     1     2     0     0  1.512481293E+02  1.219190173E+02  5.202121446E+02  5.691976096E+02  1.250000000E+02  0.00000E+00  9.000E+00
      25     1     1     2     0     0 -1.705082004E+02 -1.209192821E+02  1.242006554E+03  1.265661803E+03  1.250000000E+02  0.00000E+00  9.000E+00
      21     1     1     2   512   501  1.926007109E+01 -9.997351709E-01  5.351499799E+00  2.001470357E+01  3.371747881E-07  0.00000E+00  9.000E+00
#rwgt            1           1   4.1563677015394526E-002           5      121830           0
</event>
<event>
      5   9999  3.79277E-02  3.48608E+01 -1.00000E+00  1.48644E-01
      21    -1     0     0   502   501  0.000000000E+00  0.000000000E+00  3.674125332E+02  3.674125332E+02  0.000000000E+00  0.00000E+00  9.000E+00
       1    -1     0     0   501     0  0.000000000E+00  0.000000000E+00 -1.944711595E+03  1.944711595E+03  0.000000000E+00  0.00000E+00  9.000E+00
      25     1     1     2     0     0  5.803146141E+01 -6.406775591E+01  1.840023953E+02  2.386508105E+02  1.250000000E+02  0.00000E+00  9.000E+00
      25     1     1     2     0     0 -8.216088562E+01  8.922812873E+01  1.072823530E+02  2.045643501E+02  1.250000000E+02  0.00000E+00  9.000E+00
       1     1     1     2   502     0  2.412942421E+01 -2.516037281E+01 -1.868583810E+03  1.868908967E+03  2.157918644E-05  0.00000E+00  9.000E+00
#rwgt            1           1   4.2336430518762617E-002           5      122161           0
</event>
<event>
      5   9999  3.79277E-02  1.13640E+01 -1.00000E+00  1.89550E-01
      21    -1     0     0   502   501  0.000000000E+00  0.000000000E+00  2.226172269E+02  2.226172269E+02  0.000000000E+00  0.00000E+00  9.000E+00
      21    -1     0     0   501   511  0.000000000E+00  0.000000000E+00 -1.948340321E+02  1.948340321E+02  0.000000000E+00  0.00000E+00  9.000E+00
      25     1     1     2     0     0 -7.207402471E+01 -5.400598960E+01 -1.103011034E+02  1.894799339E+02  1.250000000E+02  0.00000E+00  9.000E+00
      25     1     1     2     0     0  6.078853119E+01  5.267278433E+01  1.502302496E+02  2.113381073E+02  1.250000000E+02  0.00000E+00  9.000E+00
      21     1     1     2   502   511  1.128549352E+01  1.333205265E+00 -1.214595133E+01  1.663321779E+01  2.920019320E-07  0.00000E+00  9.000E+00
#rwgt            2          11   4.0439560676690956E-003           5      122289           0
</event>
<event>
      5   9999  3.79277E-02  1.25706E+01 -1.00000E+00  1.84931E-01
      21    -1     0     0   502   501  0.000000000E+00  0.000000000E+00  2.168479326E+01  2.168479326E+01  0.000000000E+00  0.00000E+00  9.000E+00
      21    -1     0     0   501   512  0.000000000E+00  0.000000000E+00 -1.619350569E+03  1.619350569E+03  0.000000000E+00  0.00000E+00  9.000E+00
      25     1     1     2     0     0 -1.075830668E+02  1.194257272E+01 -9.582760714E+02  9.724375405E+02  1.250000000E+02  0.00000E+00  9.000E+00
      25     1     1     2     0     0  1.201500251E+02 -1.224617824E+01 -5.142784065E+02  5.428565896E+02  1.250000000E+02  0.00000E+00  9.000E+00
      21     1     1     2   502   512 -1.256695832E+01  3.036055207E-01 -1.251112979E+02  1.257412323E+02  1.348699152E-06  0.00000E+00  9.000E+00
#rwgt            1           1   7.8947069312793119E-002           5      122309           0
</event>
<event>
      5   9999  3.79277E-02  1.14615E+02 -1.00000E+00  1.21221E-01
      21    -1     0     0   502   501  0.000000000E+00  0.000000000E+00  3.895862757E+02  3.895862757E+02  0.000000000E+00  0.00000E+00  9.000E+00
      21    -1     0     0   511   502  0.000000000E+00  0.000000000E+00 -3.844098545E+02  3.844098545E+02  0.000000000E+00  0.00000E+00  9.000E+00
      25     1     1     2     0     0 -1.170818615E+02 -4.367399145E+01  2.374515122E+02  2.960131762E+02  1.250000000E+02  0.00000E+00  9.000E+00
      25     1     1     2     0     0  8.719216261E+01 -6.697501777E+01  4.959343136E+01  1.737027192E+02  1.250000000E+02  0.00000E+00  9.000E+00
      21     1     1     2   511   501  2.988969893E+01  1.106490092E+02 -2.818685224E+02  3.042802348E+02  0.000000000E+00  0.00000E+00  9.000E+00
#rwgt            1           1   4.2150619634332864E-002           5      122665           0
</event>
<event>
      5   9999  3.79277E-02  7.95791E+01 -1.00000E+00  1.28460E-01
      21    -1     0     0   502   501  0.000000000E+00  0.000000000E+00  6.887124327E+02  6.887124327E+02  0.000000000E+00  0.00000E+00  9.000E+00
      21    -1     0     0   501   512  0.000000000E+00  0.000000000E+00 -1.488645894E+02  1.488645894E+02  0.000000000E+00  0.00000E+00  9.000E+00
      25     1     1     2     0     0 -3.868101047E+01  1.369200501E+02  2.224090564E+02  2.921200251E+02  1.250000000E+02  0.00000E+00  9.000E+00
      25     1     1     2     0     0  1.182597328E+02 -1.366844742E+02  3.835197108E+02  4.420185272E+02  1.250000000E+02  0.00000E+00  9.000E+00
      21     1     1     2   502   512 -7.957872230E+01 -2.355759418E-01 -6.608092383E+01  1.034384698E+02  2.336015456E-06  0.00000E+00  9.000E+00
#rwgt            1           1   3.6027525445941233E-002           5      122719           0
</event>
<event>
      5   9999  3.79277E-02  6.00071E+01 -1.00000E+00  1.34701E-01
      21    -1     0     0   502   501  0.000000000E+00  0.000000000E+00  8.996732309E+01  8.996732309E+01  0.000000000E+00  0.00000E+00  9.000E+00
      21    -1     0     0   501   511  0.000000000E+00  0.000000000E+00 -5.209694430E+02  5.209694430E+02  0.000000000E+00  0.00000E+00  9.000E+00
      25     1     1     2     0     0 -1.006477376E+02 -4.603097239E+01 -1.768393532E+02  2.431994538E+02  1.250000000E+02  0.00000E+00  9.000E+00
      25     1     1     2     0     0  1.056895698E+02  1.058258514E+02 -1.441839942E+02  2.424529237E+02  1.250000000E+02  0.00000E+00  9.000E+00
      21     1     1     2   502   511 -5.041832200E+00 -5.979487904E+01 -1.099787725E+02  1.252843886E+02  2.697398305E-06  0.00000E+00  9.000E+00
#rwgt            1           1   2.3633089103745439E-002           5      122814           0
</event>
<event>
      5   9999  3.79277E-02  2.76926E+01 -1.00000E+00  1.55494E-01
      21    -1     0     0   502   501  0.000000000E+00  0.000000000E+00  2.175440606E+02  2.175440606E+02  0.000000000E+00  0.00000E+00  9.000E+00
      21    -1     0     0   512   502  0.000000000E+00  0.000000000E+00 -1.597993352E+02  1.597993352E+02  0.000000000E+00  0.00000E+00  9.000E+00
      25     1     1     2     0     0  6.622599802E+01 -4.138578934E+01  1.027409479E+02  1.796646007E+02  1.250000000E+02  0.00000E+00  9.000E+00
      25     1     1     2     0     0 -8.402046080E+01  6.260460049E+01 -4.747519143E+01  1.698754474E+02  1.250000000E+02  0.00000E+00  9.000E+00
      21     1     1     2   512   501  1.779446278E+01 -2.121881114E+01  2.478968911E+00  2.780334762E+01  4.235705854E-07  0.00000E+00  9.000E+00
#rwgt            1           1   4.0822785412992925E-002           5      122907           0
</event>
<event>
      5   9999  3.79277E-02  5.85984E+01 -1.00000E+00  1.35254E-01
      21    -1     0     0   502   501  0.000000000E+00  0.000000000E+00  6.281743118E+02  6.281743118E+02  0.000000000E+00  0.00000E+00  9.000E+00
       1    -1     0     0   501     0  0.000000000E+00  0.000000000E+00 -7.215420899E+02  7.215420899E+02  0.000000000E+00  0.00000E+00  9.000E+00
      25     1     1     2     0     0  1.752006140E+02 -7.186481726E+01  5.130524370E+02  5.609880660E+02  1.250000000E+02  0.00000E+00  9.000E+00
      25     1     1     2     0     0 -1.212866454E+02  9.482248202E+01 -1.991961007E+01  1.993076625E+02  1.250000000E+02  0.00000E+00  9.000E+00
       1     1     1     2   502     0 -5.391396858E+01 -2.295766476E+01 -5.865006050E+02  5.894206733E+02  7.629394531E-06  0.00000E+00  9.000E+00
#rwgt            1           1   2.8160049544481543E-002           5      123015           0
</event>
<event>
      5   9999  3.79277E-02  3.60262E+01 -1.00000E+00  1.47716E-01
      21    -1     0     0   502   501  0.000000000E+00  0.000000000E+00  2.750364053E+02  2.750364053E+02  0.000000000E+00  0.00000E+00  9.000E+00
      21    -1     0     0   501   511  0.000000000E+00  0.000000000E+00 -3.899743503E+02  3.899743503E+02  0.000000000E+00  0.00000E+00  9.000E+00
      25     1     1     2     0     0  8.684425683E+01 -1.237484812E+02 -2.077467431E+02  2.857259540E+02  1.250000000E+02  0.00000E+00  9.000E+00
      25     1     1     2     0     0 -1.101996864E+02  9.631833087E+01  1.931466832E+02  2.726753252E+02  1.250000000E+02  0.00000E+00  9.000E+00
      21     1     1     2   502   511  2.335542953E+01  2.743015033E+01 -1.003378852E+02  1.066094763E+02  0.000000000E+00  0.00000E+00  9.000E+00
#rwgt            1           1   3.0328016705100536E-002           5      123199           0
</event>
<event>
      5   9999  3.79277E-02  5.76533E+01 -1.00000E+00  1.35636E-01
      21    -1     0     0   502   512  0.000000000E+00  0.000000000E+00  9.372716593E+01  9.372716593E+01  0.000000000E+00  0.00000E+00  9.000E+00
      21    -1     0     0   501   502  0.000000000E+00  0.000000000E+00 -4.032207042E+02  4.032207042E+02  0.000000000E+00  0.00000E+00  9.000E+00
      25     1     1     2     0     0  2.623024360E+01 -4.422100682E+01 -2.340966424E+02  2.703141896E+02  1.250000000E+02  0.00000E+00  9.000E+00
      25     1     1     2     0     0 -7.572074191E+01  1.464739285E+01 -8.263444596E+01  1.685278272E+02  1.250000000E+02  0.00000E+00  9.000E+00
      21     1     1     2   501   512  4.949049831E+01  2.957361397E+01  7.237550045E+00  5.810585338E+01  1.278377210E-06  0.00000E+00  9.000E+00
#rwgt            1           1  0.10942747152991440                5      123451           0
</event>
<event>
      5   9999  3.79277E-02  9.72014E+01 -1.00000E+00  1.24385E-01
      21    -1     0     0   502   501  0.000000000E+00  0.000000000E+00  1.855933913E+02  1.855933913E+02  0.000000000E+00  0.00000E+00  9.000E+00
       1    -1     0     0   501     0  0.000000000E+00  0.000000000E+00 -2.274254206E+03  2.274254206E+03  0.000000000E+00  0.00000E+00  9.000E+00
      25     1     1     2     0     0 -1.111116766E+02 -1.330429479E+01  9.748767937E+01  1.940403478E+02  1.250000000E+02  0.00000E+00  9.000E+00
      25     1     1     2     0     0  6.640278026E+01  9.961318576E+01 -1.550188017E+02  2.323530609E+02  1.250000000E+02  0.00000E+00  9.000E+00
       1     1     1     2   502     0  4.470889636E+01 -8.630889097E+01 -2.031129692E+03  2.033454188E+03  3.737624730E-05  0.00000E+00  9.000E+00
#rwgt            1           1   2.5614682202151975E-002           5      123557           0
</event>
<event>
      5   9999  3.79277E-02  5.73428E+01 -1.00000E+00  1.35763E-01
      21    -1     0     0   502   501  0.000000000E+00  0.000000000E+00  7.276025039E+02  7.276025039E+02  0.000000000E+00  0.00000E+00  9.000E+00
      21    -1     0     0   511   502  0.000000000E+00  0.000000000E+00 -1.762366454E+02  1.762366454E+02  0.000000000E+00  0.00000E+00  9.000E+00
      25     1     1     2     0     0 -8.094476753E+01 -2.447716270E+02  2.505540154E+02  3.806146600E+02  1.250000000E+02  0.00000E+00  9.000E+00
      25     1     1     2     0     0  8.425271940E+01  3.020189710E+02  3.176000141E+02  4.634746471E+02  1.250000000E+02  0.00000E+00  9.000E+00
      21     1     1     2   511   501 -3.307951866E+00 -5.724734402E+01 -1.678817104E+01  5.974984209E+01  8.259061849E-07  0.00000E+00  9.000E+00
#rwgt            1           1   3.7769728375581235E-002           5      123781           0
</event>
<event>
      5   9999  3.79277E-02  4.05141E+01 -1.00000E+00  1.44497E-01
      21    -1     0     0   502   501  0.000000000E+00  0.000000000E+00  1.617642151E+02  1.617642151E+02  0.000000000E+00  0.00000E+00  9.000E+00
       1    -1     0     0   501     0  0.000000000E+00  0.000000000E+00 -7.945167566E+02  7.945167566E+02  0.000000000E+00  0.00000E+00  9.000E+00
      25     1     1     2     0     0  9.228962131E+01 -2.850966833E+01 -2.638174757E+02  3.074977006E+02  1.250000000E+02  0.00000E+00  9.000E+00
      25     1     1     2     0     0 -1.283622332E+02  1.006631586E+01  8.110060594E+01  1.969276565E+02  1.250000000E+02  0.00000E+00  9.000E+00
       1     1     1     2   502     0  3.607261188E+01  1.844335246E+01 -4.500356717E+02  4.518556145E+02  5.394796609E-06  0.00000E+00  9.000E+00
#rwgt            1           1   3.7731916915210294E-002           5      123941           0
</event>
<event>
      5   9999  3.79277E-02  1.17360E+02 -1.00000E+00  1.20780E-01
      21    -1     0     0   511   501  0.000000000E+00  0.000000000E+00  1.919689641E+02  1.919689641E+02  0.000000000E+00  0.00000E+00  9.000E+00
      21    -1     0     0   501   502  0.000000000E+00  0.000000000E+00 -4.713701506E+02  4.713701506E+02  0.000000000E+00  0.00000E+00  9.000E+00
      25     1     1     2     0     0  7.076115676E+01  5.645432780E+01 -3.500056168E+02  3.825221094E+02  1.250000000E+02  0.00000E+00  9.000E+00
      25     1     1     2     0     0  4.628706503E+01 -6.500423010E+01  6.870291512E+01  1.634415274E+02  1.250000000E+02  0.00000E+00  9.000E+00
      21     1     1     2   511   502 -1.170482218E+02  8.549902296E+00  1.901515085E+00  1.173754779E+02  9.132357506E-07  0.00000E+00  9.000E+00
#rwgt            1           1   5.0317072726553350E-002           5      124087           0
</event>
<event>
      5   9999  3.79277E-02  3.44287E+01 -1.00000E+00  1.48999E-01
      21    -1     0     0   502   501  0.000000000E+00  0.000000000E+00  1.199560082E+02  1.199560082E+02  0.000000000E+00  0.00000E+00  9.000E+00
      21    -1     0     0   501   512  0.000000000E+00  0.000000000E+00 -4.709568841E+02  4.709568841E+02  0.000000000E+00  0.00000E+00  9.000E+00
      25     1     1     2     0     0  5.230302887E+00 -1.756491425E+02 -8.878163407E+01  2.332105398E+02  1.250000000E+02  0.00000E+00  9.000E+00
      25     1     1     2     0     0 -3.267140225E+01  1.548568302E+02 -1.872302926E+02  2.751876466E+02  1.250000000E+02  0.00000E+00  9.000E+00
      21     1     1     2   502   512  2.744109936E+01  2.079231225E+01 -7.498894918E+01  8.251470586E+01  9.536743164E-07  0.00000E+00  9.000E+00
#rwgt            2          11   1.7902754094108954E-003           5      124119           0
</event>
<event>
      5   9999  3.79277E-02  3.16983E+01 -1.00000E+00  1.51397E-01
      21    -1     0     0   502   501  0.000000000E+00  0.000000000E+00  7.972638807E+01  7.972638807E+01  0.000000000E+00  0.00000E+00  9.000E+00
      21    -1     0     0   511   502  0.000000000E+00  0.000000000E+00 -6.181771572E+02  6.181771572E+02  0.000000000E+00  0.00000E+00  9.000E+00
      25     1     1     2     0     0  1.112189323E+02 -6.963495236E+01 -3.290261174E+02  3.756352798E+02  1.250000000E+02  0.00000E+00  9.000E+00
      25     1     1     2     0     0 -1.365853518E+02  5.062632521E+01 -1.175551798E+02  2.250839920E+02  1.250000000E+02  0.00000E+00  9.000E+00
      21     1     1     2   511   501  2.536641954E+01  1.900862715E+01 -9.186947197E+01  9.718427355E+01  1.907348633E-06  0.00000E+00  9.000E+00
#rwgt            1           1   4.2147416798970411E-002           5      124139           0
</event>
<event>
      5   9999  3.79277E-02  1.47083E+02 -1.00000E+00  1.16733E-01
      21    -1     0     0   502   501  0.000000000E+00  0.000000000E+00  2.045278846E+02  2.045278846E+02  0.000000000E+00  0.00000E+00  9.000E+00
      21    -1     0     0   512   502  0.000000000E+00  0.000000000E+00 -4.836757762E+02  4.836757762E+02  0.000000000E+00  0.00000E+00  9.000E+00
      25     1     1     2     0     0  1.647733972E+02 -5.004156772E+01  7.264051977E+01  2.248467835E+02  1.250000000E+02  0.00000E+00  9.000E+00
      25     1     1     2     0     0 -6.284225429E+01 -5.599368693E+01 -2.145897691E+02  2.622178692E+02  1.250000000E+02  0.00000E+00  9.000E+00
      21     1     1     2   512   501 -1.019311429E+02  1.060352547E+02 -1.371986423E+02  2.011390081E+02  3.303624740E-06  0.00000E+00  9.000E+00
#rwgt            1           1   4.0671763290494260E-002           5      124257           0
</event>
<event>
      5   9999  3.79277E-02  2.83921E+01 -1.00000E+00  1.54720E-01
       2    -1     0     0   502     0  0.000000000E+00  0.000000000E+00  7.275570254E+02  7.275570254E+02  0.000000000E+00  0.00000E+00  9.000E+00
      21    -1     0     0   501   502  0.000000000E+00  0.000000000E+00 -2.499125125E+02  2.499125125E+02  0.000000000E+00  0.00000E+00  9.000E+00
      25     1     1     2     0     0  1.412435786E+02 -4.805327142E+01 -3.225362335E+00  1.946645021E+02  1.250000000E+02  0.00000E+00  9.000E+00
      25     1     1     2     0     0 -1.616058035E+02  2.826718663E+01 -7.999416791E+01  2.212228209E+02  1.250000000E+02  0.00000E+00  9.000E+00
       2     1     1     2   501     0  2.036222491E+01  1.978608479E+01  5.608640431E+02  5.615822150E+02  1.078959322E-05  0.00000E+00  9.000E+00
#rwgt            1           1   3.6543109391899128E-002           5      124287           0
</event>
<event>
      5   9999  3.79277E-02  2.25856E+01 -1.00000E+00  1.62127E-01
      21    -1     0     0   502   511  0.000000000E+00  0.000000000E+00  5.762527544E+02  5.762527544E+02  0.000000000E+00  0.00000E+00  9.000E+00
      21    -1     0     0   501   502  0.000000000E+00  0.000000000E+00 -1.191834298E+02  1.191834298E+02  0.000000000E+00  0.00000E+00  9.000E+00
      25     1     1     2     0     0 -6.886167646E+01  1.249740357E+02  7.133288783E+00  1.898323573E+02  1.250000000E+02  0.00000E+00  9.000E+00
      25     1     1     2     0     0  8.873031681E+01 -1.142340420E+02  3.126042482E+02  3.664272117E+02  1.250000000E+02  0.00000E+00  9.000E+00
      21     1     1     2   501   511 -1.986864035E+01 -1.073999370E+01  1.373317876E+02  1.391766152E+02  0.000000000E+00  0.00000E+00  9.000E+00
#rwgt            1           1   3.8646959347716413E-002           5      124605           0
</event>
<event>
      5   9999  3.79277E-02  4.90287E+01 -1.00000E+00  1.39563E-01
      21    -1     0     0   502   512  0.000000000E+00  0.000000000E+00  1.432844391E+03  1.432844391E+03  0.000000000E+00  0.00000E+00  9.000E+00
      21    -1     0     0   501   502  0.000000000E+00  0.000000000E+00 -1.253385454E+02  1.253385454E+02  0.000000000E+00  0.00000E+00  9.000E+00
      25     1     1     2     0     0 -1.206417280E+02 -1.992855060E+02  7.576442901E+01  2.750170688E+02  1.250000000E+02  0.00000E+00  9.000E+00
      25     1     1     2     0     0  8.750545672E+01  2.354213281E+02  7.827682413E+02  8.315236174E+02  1.250000000E+02  0.00000E+00  9.000E+00
      21     1     1     2   501   512  3.313627125E+01 -3.613582209E+01  4.489731751E+02  4.516422500E+02  7.629394531E-06  0.00000E+00  9.000E+00
#rwgt            1           1  0.10257498797240512                5      124868           0
</event>
<event>
      5   9999  3.79277E-02  1.50915E+01 -1.00000E+00  1.77135E-01
      21    -1     0     0   511   501  0.000000000E+00  0.000000000E+00  1.763844011E+02  1.763844011E+02  0.000000000E+00  0.00000E+00  9.000E+00
      21    -1     0     0   501   502  0.000000000E+00  0.000000000E+00 -1.303076353E+03  1.303076353E+03  0.000000000E+00  0.00000E+00  9.000E+00
      25     1     1     2     0     0 -1.689908781E+02 -1.621397252E+00 -1.087707625E+03  1.107832760E+03  1.250000000E+02  0.00000E+00  9.000E+00
      25     1     1     2     0     0  1.578019215E+02  1.174860688E+01 -1.551833617E+02  2.544530447E+02  1.250000000E+02  0.00000E+00  9.000E+00
      21     1     1     2   511   502  1.118895662E+01 -1.012720963E+01  1.161990349E+02  1.171749497E+02  4.264961200E-06  0.00000E+00  9.000E+00
#rwgt            1           1  0.13842780410193459                5      125044           0
</event>
<event>
      5   9999  3.79277E-02  1.55628E+02 -1.00000E+00  1.15763E-01
      21    -1     0     0   502   501  0.000000000E+00  0.000000000E+00  2.396613581E+02  2.396613581E+02  0.000000000E+00  0.00000E+00  9.000E+00
      21    -1     0     0   512   502  0.000000000E+00  0.000000000E+00 -3.287469427E+02  3.287469427E+02  0.000000000E+00  0.00000E+00  9.000E+00
      25     1     1     2     0     0  1.030556406E+02 -5.700416515E+01 -3.966312359E+01  1.762614628E+02  1.250000000E+02  0.00000E+00  9.000E+00
      25     1     1     2     0     0 -1.475816882E+02 -9.211780913E+01  3.184872780E+01  2.165765151E+02  1.250000000E+02  0.00000E+00  9.000E+00
      21     1     1     2   512   501  4.452604761E+01  1.491219743E+02 -8.127118888E+01  1.755703229E+02  9.536743164E-07  0.00000E+00  9.000E+00
#rwgt            1           1   4.2966518772920223E-002           5      125224           0
</event>
<event>
      5   9999  3.79277E-02  5.16669E+01 -1.00000E+00  1.38268E-01
      21    -1     0     0   502   501  0.000000000E+00  0.000000000E+00  2.792729135E+02  2.792729135E+02  0.000000000E+00  0.00000E+00  9.000E+00
      21    -1     0     0   501   511  0.000000000E+00  0.000000000E+00 -2.510815880E+02  2.510815880E+02  0.000000000E+00  0.00000E+00  9.000E+00
      25     1     1     2     0     0  4.738103879E+01  1.253956115E+02  1.394448370E+02  2.303017256E+02  1.250000000E+02  0.00000E+00  9.000E+00
      25     1     1     2     0     0 -4.566035658E+01 -1.770338702E+02 -1.124194824E+02  2.483727025E+02  1.250000000E+02  0.00000E+00  9.000E+00
      21     1     1     2   502   511 -1.720682208E+00  5.163825864E+01  1.165970805E+00  5.168007343E+01  8.843308762E-07  0.00000E+00  9.000E+00
#rwgt            1           1   3.0165591247406462E-002           5      125301           0
</event>
<event>
      5   9999  3.79277E-02  4.41496E+01 -1.00000E+00  1.42231E-01
      21    -1     0     0   502   501  0.000000000E+00  0.000000000E+00  1.475098893E+03  1.475098893E+03  0.000000000E+00  0.00000E+00  9.000E+00
      21    -1     0     0   501   512  0.000000000E+00  0.000000000E+00 -4.474208604E+01  4.474208604E+01  0.000000000E+00  0.00000E+00  9.000E+00
      25     1     1     2     0     0 -3.419005518E+01 -2.014673068E+02  8.122784227E+02  8.468643761E+02  1.250000000E+02  0.00000E+00  9.000E+00
      25     1     1     2     0     0  5.991402030E+01  1.655860940E+02  5.587135989E+02  5.989944323E+02  1.250000000E+02  0.00000E+00  9.000E+00
      21     1     1     2   502   512 -2.572396512E+01  3.588121282E+01  5.936478498E+01  7.398217022E+01  1.348699152E-06  0.00000E+00  9.000E+00
#rwgt            1           1  0.12837580237387175                5      125399           0
</event>
<event>
      5   9999  3.79277E-02  3.99273E+01 -1.00000E+00  1.44889E-01
      21    -1     0     0   511   501  0.000000000E+00  0.000000000E+00  2.922097644E+01  2.922097644E+01  0.000000000E+00  0.00000E+00  9.000E+00
      21    -1     0     0   501   502  0.000000000E+00  0.000000000E+00 -4.017369359E+03  4.017369359E+03  0.000000000E+00  0.00000E+00  9.000E+00
      25     1     1     2     0     0  3.554195216E+01 -7.059930152E+01 -9.830013076E+02  9.940644157E+02  1.250000000E+02  0.00000E+00  9.000E+00
      25     1     1     2     0     0 -7.509682573E+01  7.603992027E+01 -3.008004125E+03  3.012496542E+03  1.250000000E+02  0.00000E+00  9.000E+00
      21     1     1     2   511   502  3.955487357E+01 -5.440618748E+00  2.857049491E+00  4.002937781E+01  2.272414868E-06  0.00000E+00  9.000E+00
#rwgt            1           1   1.8725802471872078E-003           5      125596           0
</event>
<event>
      5   9999  3.79277E-02  4.43636E+01 -1.00000E+00  1.42105E-01
      21    -1     0     0   502   512  0.000000000E+00  0.000000000E+00  5.820479056E+02  5.820479056E+02  0.000000000E+00  0.00000E+00  9.000E+00
      21    -1     0     0   501   502  0.000000000E+00  0.000000000E+00 -1.190564877E+02  1.190564877E+02  0.000000000E+00  0.00000E+00  9.000E+00
      25     1     1     2     0     0 -5.751855855E+01 -1.075714214E+02  3.245585060E-01  1.746570944E+02  1.250000000E+02  0.00000E+00  9.000E+00
      25     1     1     2     0     0  9.694840962E+01  1.279040768E+02  4.091582652E+02  4.569397476E+02  1.250000000E+02  0.00000E+00  9.000E+00
      21     1     1     2   501   512 -3.942985107E+01 -2.033265547E+01  5.350859421E+01  6.950755130E+01  9.536743164E-07  0.00000E+00  9.000E+00
#rwgt            1           1   3.6238893012552113E-002           5      125752           0
</event>
<event>
      5   9999  3.79277E-02  1.07559E+01 -1.00000E+00  1.92168E-01
      21    -1     0     0   502   501  0.000000000E+00  0.000000000E+00  1.124424868E+03  1.124424868E+03  0.000000000E+00  0.00000E+00  9.000E+00
      21    -1     0     0   511   502  0.000000000E+00  0.000000000E+00 -4.094786955E+01  4.094786955E+01  0.000000000E+00  0.00000E+00  9.000E+00
      25     1     1     2     0     0 -3.966971527E+01  2.809114931E+01  9.666626160E+02  9.759223392E+02  1.250000000E+02  0.00000E+00  9.000E+00
      25     1     1     2     0     0  5.017593545E+01 -3.039543742E+01  1.113574185E+02  1.773893508E+02  1.250000000E+02  0.00000E+00  9.000E+00
      21     1     1     2   511   501 -1.050622018E+01  2.304288114E+00  5.456963442E+00  1.206104706E+01  2.457562462E-07  0.00000E+00  9.000E+00
#rwgt            1           1   1.5881569415124728E-002           5      125847           0
</event>
<event>
      5   9999  3.79277E-02  7.68278E+01 -1.00000E+00  1.29206E-01
      21    -1     0     0   502   501  0.000000000E+00  0.000000000E+00  2.226019788E+02  2.226019788E+02  0.000000000E+00  0.00000E+00  9.000E+00
      21    -1     0     0   512   502  0.000000000E+00  0.000000000E+00 -1.555781683E+03  1.555781683E+03  0.000000000E+00  0.00000E+00  9.000E+00
      25     1     1     2     0     0  1.509383201E+01  1.548081537E+01  1.878406845E+02  2.266640734E+02  1.250000000E+02  0.00000E+00  9.000E+00
      25     1     1     2     0     0  6.173327993E+01 -1.514929913E+01 -3.343899196E+02  3.626046297E+02  1.250000000E+02  0.00000E+00  9.000E+00
      21     1     1     2   512   501 -7.682711194E+01 -3.315162390E-01 -1.186630469E+03  1.189114958E+03  1.525878906E-05  0.00000E+00  9.000E+00
#rwgt            1           1   4.2028457396616620E-002           5      126149           0
</event>
<event>
      5   9999  3.79277E-02  2.39515E+01 -1.00000E+00  1.60157E-01
      21    -1     0     0   502   511  0.000000000E+00  0.000000000E+00  1.881012378E+02  1.881012378E+02  0.000000000E+00  0.00000E+00  9.000E+00
      21    -1     0     0   501   502  0.000000000E+00  0.000000000E+00 -1.789900390E+02  1.789900390E+02  0.000000000E+00  0.00000E+00  9.000E+00
      25     1     1     2     0     0 -3.485553088E+01 -8.711031262E+01 -6.897786693E+01  1.708392833E+02  1.250000000E+02  0.00000E+00  9.000E+00
      25     1     1     2     0     0  2.822670078E+01  6.409442319E+01  3.585724040E+01  1.477009933E+02  1.250000000E+02  0.00000E+00  9.000E+00
      21     1     1     2   501   511  6.628830105E+00  2.301588943E+01  4.223182535E+01  4.855100027E+01  0.000000000E+00  0.00000E+00  9.000E+00
#rwgt            1           1   5.0451790777844431E-002           5      126193           0
</event>
<event>
      5   9999  3.79277E-02  3.89261E+01 -1.00000E+00  1.45577E-01
      21    -1     0     0   502   512  0.000000000E+00  0.000000000E+00  1.121487470E+02  1.121487470E+02  0.000000000E+00  0.00000E+00  9.000E+00
      21    -1     0     0   501   502  0.000000000E+00  0.000000000E+00 -8.216380613E+02  8.216380613E+02  0.000000000E+00  0.00000E+00  9.000E+00
      25     1     1     2     0     0 -1.432156091E+02 -6.484715330E+01 -1.726479121E+02  2.648549896E+02  1.250000000E+02  0.00000E+00  9.000E+00
      25     1     1     2     0     0  1.312711119E+02  2.779898458E+01 -5.814756958E+02  6.097080229E+02  1.250000000E+02  0.00000E+00  9.000E+00
      21     1     1     2   501   512  1.194449721E+01  3.704816872E+01  4.463429359E+01  5.922379575E+01  1.907348633E-06  0.00000E+00  9.000E+00
#rwgt            1           1   3.3570965696766097E-002           5      126301           0
</event>
<event>
      5   9999  3.79277E-02  1.39932E+02 -1.00000E+00  1.17602E-01
      21    -1     0     0   502   511  0.000000000E+00  0.000000000E+00  5.595708373E+02  5.595708373E+02  0.000000000E+00  0.00000E+00  9.000E+00
      21    -1     0     0   501   502  0.000000000E+00  0.000000000E+00 -1.692211881E+02  1.692211881E+02  0.000000000E+00  0.00000E+00  9.000E+00
      25     1     1     2     0     0  8.285869354E+00  8.395472183E+01  3.452732723E+02  3.767700672E+02  1.250000000E+02  0.00000E+00  9.000E+00
      25     1     1     2     0     0  1.244846000E+02 -3.976165680E+01 -4.403833526E+01  1.861230237E+02  1.250000000E+02  0.00000E+00  9.000E+00
      21     1     1     2   501   511 -1.327704693E+02 -4.419306503E+01  8.911471218E+01  1.658989344E+02  3.932099939E-06  0.00000E+00  9.000E+00
#rwgt            1           1   5.1103231099183868E-002           5      126436           0
</event>
<event>
      5   9999  3.79277E-02  2.80045E+01 -1.00000E+00  1.55146E-01
      21    -1     0     0   512   501  0.000000000E+00  0.000000000E+00  4.334076789E+01  4.334076789E+01  0.000000000E+00  0.00000E+00  9.000E+00
      21    -1     0     0   501   502  0.000000000E+00  0.000000000E+00 -1.019314877E+03  1.019314877E+03  0.000000000E+00  0.00000E+00  9.000E+00
      25     1     1     2     0     0 -9.215742291E+01  1.166281426E+02 -5.401762801E+02  5.740300757E+02  1.250000000E+02  0.00000E+00  9.000E+00
      25     1     1     2     0     0  8.626336385E+01 -8.925097443E+01 -4.222363291E+02  4.575102425E+02  1.250000000E+02  0.00000E+00  9.000E+00
      21     1     1     2   512   502  5.894059060E+00 -2.737716820E+01 -1.356149983E+01  3.111532658E+01  5.057621821E-07  0.00000E+00  9.000E+00
#rwgt            1           1   4.1587446097219316E-002           5      126634           0
</event>
<event>
      5   9999 -3.79277E-02  4.19761E+01 -1.00000E+00  1.43553E-01
      21    -1     0     0   502   511  0.000000000E+00  0.000000000E+00  7.419510288E+02  7.419510288E+02  0.000000000E+00  0.00000E+00  9.000E+00
      21    -1     0     0   501   502  0.000000000E+00  0.000000000E+00 -1.778405202E+02  1.778405202E+02  0.000000000E+00  0.00000E+00  9.000E+00
      25     1     1     2     0     0 -2.341737966E+02  9.930181415E+01  2.719535571E+02  3.927874165E+02  1.250000000E+02  0.00000E+00  9.000E+00
      25     1     1     2     0     0  2.182915894E+02 -6.044634930E+01  2.878116947E+01  2.603043121E+02  1.250000000E+02  0.00000E+00  9.000E+00
      21     1     1     2   501   511  1.588220711E+01 -3.885546484E+01  2.633757821E+02  2.666998205E+02  3.814697266E-06  0.00000E+00  9.000E+00
#rwgt            1           1 -0.13146552819311041                5      126734           0
</event>
<event>
      5   9999  3.79277E-02  1.58184E+01 -1.00000E+00  1.75237E-01
      21    -1     0     0   512   501  0.000000000E+00  0.000000000E+00  4.195132680E+02  4.195132680E+02  0.000000000E+00  0.00000E+00  9.000E+00
      21    -1     0     0   501   502  0.000000000E+00  0.000000000E+00 -4.417671208E+02  4.417671208E+02  0.000000000E+00  0.00000E+00  9.000E+00
      25     1     1     2     0     0 -3.377206933E+02 -1.521364481E+02  1.475575500E+02  4.178504470E+02  1.250000000E+02  0.00000E+00  9.000E+00
      25     1     1     2     0     0  3.242269320E+02  1.603911665E+02 -1.816819600E+02  4.236528818E+02  1.250000000E+02  0.00000E+00  9.000E+00
      21     1     1     2   512   502  1.349376130E+01 -8.254718468E+00  1.187055714E+01  1.977705988E+01  2.920019320E-07  0.00000E+00  9.000E+00
#rwgt            1           1  0.14814380230373414                5      126874           0
</event>
<event>
      5   9999  3.79277E-02  2.44278E+01 -1.00000E+00  1.59508E-01
      21    -1     0     0   511   501  0.000000000E+00  0.000000000E+00  1.694536640E+03  1.694536640E+03  0.000000000E+00  0.00000E+00  9.000E+00
      21    -1     0     0   501   502  0.000000000E+00  0.000000000E+00 -8.775869234E+01  8.775869234E+01  0.000000000E+00  0.00000E+00  9.000E+00
      25     1     1     2     0     0 -1.992368721E+02  4.953266432E+00  1.391800385E+03  1.411542836E+03  1.250000000E+02  0.00000E+00  9.000E+00
      25     1     1     2     0     0  2.235947916E+02 -3.106457366E+00  1.400946484E+02  2.919859439E+02  1.250000000E+02  0.00000E+00  9.000E+00
      21     1     1     2   511   502 -2.435791946E+01 -1.846809067E+00  7.488291394E+01  7.876655219E+01  1.348699152E-06  0.00000E+00  9.000E+00
#rwgt            1           1   3.8283720597602960E-002           5      127101           0
</event>
<event>
      5   9999  3.79277E-02  5.37080E+01 -1.00000E+00  1.37326E-01
      21    -1     0     0   502   512  0.000000000E+00  0.000000000E+00  4.150454069E+02  4.150454069E+02  0.000000000E+00  0.00000E+00  9.000E+00
      21    -1     0     0   501   502  0.000000000E+00  0.000000000E+00 -2.156108111E+02  2.156108111E+02  0.000000000E+00  0.00000E+00  9.000E+00
      25     1     1     2     0     0 -7.820692896E+01 -1.307319933E+02  1.234566785E+02  2.325375868E+02  1.250000000E+02  0.00000E+00  9.000E+00
      25     1     1     2     0     0  7.235447074E+01  7.734384449E+01 -1.147164842E+02  2.000052786E+02  1.250000000E+02  0.00000E+00  9.000E+00
      21     1     1     2   501   512  5.852458227E+00  5.338814882E+01  1.906944015E+02  1.981133526E+02  2.697398305E-06  0.00000E+00  9.000E+00
#rwgt            1           1   3.6115666122931940E-002           5      127311           0
</event>
<event>
      5   9999  3.79277E-02  1.96356E+01 -1.00000E+00  1.67031E-01
      21    -1     0     0   511   501  0.000000000E+00  0.000000000E+00  1.569113876E+02  1.569113876E+02  0.000000000E+00  0.00000E+00  9.000E+00
      21    -1     0     0   501   502  0.000000000E+00  0.000000000E+00 -3.836101781E+02  3.836101781E+02  0.000000000E+00  0.00000E+00  9.000E+00
      25     1     1     2     0     0  6.999205327E+00 -1.801522025E+02 -6.700160405E+01  2.293861807E+02  1.250000000E+02  0.00000E+00  9.000E+00
      25     1     1     2     0     0  1.824737392E+00  1.976934346E+02 -1.698143635E+02  2.890466083E+02  1.250000000E+02  0.00000E+00  9.000E+00
      21     1     1     2   511   502 -8.823942718E+00 -1.754123204E+01  1.011717705E+01  2.208877675E+01  3.371747881E-07  0.00000E+00  9.000E+00
#rwgt            1           1   4.3887846131627488E-002           5      127403           0
</event>
<event>
      5   9999  3.79277E-02  2.03357E+01 -1.00000E+00  1.65775E-01
      21    -1     0     0   502   501  0.000000000E+00  0.000000000E+00  2.769605054E+02  2.769605054E+02  0.000000000E+00  0.00000E+00  9.000E+00
      21    -1     0     0   501   512  0.000000000E+00  0.000000000E+00 -2.100362532E+02  2.100362532E+02  0.000000000E+00  0.00000E+00  9.000E+00
      25     1     1     2     0     0 -8.894059269E+01  5.420538042E+01  2.068919863E+02  2.632070407E+02  1.250000000E+02  0.00000E+00  9.000E+00
      25     1     1     2     0     0  6.868186666E+01 -5.597339933E+01 -1.309190232E+02  2.015316622E+02  1.250000000E+02  0.00000E+00  9.000E+00
      21     1     1     2   502   512  2.025872602E+01  1.768018909E+00 -9.048710992E+00  2.225805566E+01  0.000000000E+00  0.00000E+00  9.000E+00
#rwgt            1           1   3.9403961677361272E-002           5      127600           0
</event>
<event>
      5   9999  3.79277E-02  2.82822E+01 -1.00000E+00  1.54840E-01
      21    -1     0     0   502   501  0.000000000E+00  0.000000000E+00  2.912602161E+02  2.912602161E+02  0.000000000E+00  0.00000E+00  9.000E+00
      21    -1     0     0   501   511  0.000000000E+00  0.000000000E+00 -8.261260534E+02  8.261260534E+02  0.000000000E+00  0.00000E+00  9.000E+00
      25     1     1     2     0     0  1.951648538E+02 -1.699514596E+02 -6.651543010E+02  7.245882023E+02  1.250000000E+02  0.00000E+00  9.000E+00
      25     1     1     2     0     0 -1.982167682E+02  1.980684641E+02  1.647113530E+02  3.482467997E+02  1.250000000E+02  0.00000E+00  9.000E+00
      21     1     1     2   502   511  3.051914454E+00 -2.811700447E+01 -3.442288931E+01  4.455126744E+01  6.743495762E-07  0.00000E+00  9.000E+00
#rwgt            1           1  0.15068035942508820                5      127790           0
</event>
<event>
      5   9999  3.79277E-02  4.81665E+01 -1.00000E+00  1.40008E-01
      21    -1     0     0   502   501  0.000000000E+00  0.000000000E+00  1.076672146E+03  1.076672146E+03  0.000000000E+00  0.00000E+00  9.000E+00
      21    -1     0     0   501   512  0.000000000E+00  0.000000000E+00 -4.995612549E+01  4.995612549E+01  0.000000000E+00  0.00000E+00  9.000E+00
      25     1     1     2     0     0  9.721236147E+01 -1.225300748E+02  3.270082785E+02  3.834361442E+02  1.250000000E+02  0.00000E+00  9.000E+00
      25     1     1     2     0     0 -4.913821826E+01  1.195493021E+02  6.481779707E+02  6.726561393E+02  1.250000000E+02  0.00000E+00  9.000E+00
      21     1     1     2   502   512 -4.807414320E+01  2.980772638E+00  5.152977095E+01  7.053598759E+01  6.743495762E-07  0.00000E+00  9.000E+00
#rwgt            1           1   3.2878621619156674E-002           5      127972           0
</event>
<event>
      5   9999  3.79277E-02  2.41117E+01 -1.00000E+00  1.59937E-01
      21    -1     0     0   502   501  0.000000000E+00  0.000000000E+00  1.063853772E+02  1.063853772E+02  0.000000000E+00  0.00000E+00  9.000E+00
       2    -1     0     0   501     0  0.000000000E+00  0.000000000E+00 -2.221401278E+03  2.221401278E+03  0.000000000E+00  0.00000E+00  9.000E+00
      25     1     1     2     0     0  1.110499711E+02  3.339332222E+02 -8.800361234E+02  9.559979453E+02  1.250000000E+02  0.00000E+00  9.000E+00
      25     1     1     2     0     0 -8.902562933E+01 -3.437466236E+02 -4.511087783E+02  5.875469630E+02  1.250000000E+02  0.00000E+00  9.000E+00
       2     1     1     2   502     0 -2.202434174E+01  9.813401400E+00 -7.838709990E+02  7.842417468E+02  1.078959322E-05  0.00000E+00  9.000E+00
#rwgt            1           1   3.1022972813242462E-002           5      128067           0
</event>
<event>
      5   9999  3.79277E-02  3.99355E+01 -1.00000E+00  1.44884E-01
      21    -1     0     0   502   511  0.000000000E+00  0.000000000E+00  1.032152840E+03  1.032152840E+03  0.000000000E+00  0.00000E+00  9.000E+00
      21    -1     0     0   501   502  0.000000000E+00  0.000000000E+00 -6.619646742E+01  6.619646742E+01  0.000000000E+00  0.00000E+00  9.000E+00
      25     1     1     2     0     0  1.104705824E+02  1.172836812E+02  1.805417336E+02  2.723591912E+02  1.250000000E+02  0.00000E+00  9.000E+00
      25     1     1     2     0     0 -8.439907456E+01 -1.475346603E+02  7.095820386E+02  7.402846407E+02  1.250000000E+02  0.00000E+00  9.000E+00
      21     1     1     2   501   511 -2.607150784E+01  3.025097908E+01  7.583260061E+01  8.570547574E+01  1.348699152E-06  0.00000E+00  9.000E+00
#rwgt            1           1   3.8864479759816654E-002           5      128281           0
</event>
<event>
      5   9999  3.79277E-02  7.90460E+01 -1.00000E+00  1.28602E-01
      21    -1     0     0   502   512  0.000000000E+00  0.000000000E+00  3.064496658E+02  3.064496658E+02  0.000000000E+00  0.00000E+00  9.000E+00
      21    -1     0     0   501   502  0.000000000E+00  0.000000000E+00 -7.590985300E+02  7.590985300E+02  0.000000000E+00  0.00000E+00  9.000E+00
      25     1     1     2     0     0 -1.498580536E+02 -1.013990923E+02 -3.585519724E+02  4.206230249E+02  1.250000000E+02  0.00000E+00  9.000E+00
      25     1     1     2     0     0  1.142018013E+02  3.085196710E+01 -3.430091626E+02  3.837631834E+02  1.250000000E+02  0.00000E+00  9.000E+00
      21     1     1     2   501   512  3.565625231E+01  7.054712524E+01  2.489122707E+02  2.611619875E+02  4.672030912E-06  0.00000E+00  9.000E+00
#rwgt            1           1   4.4225690577126900E-002           5      128569           0
</event>
<event>
      5   9999  3.79277E-02  2.28031E+02 -1.00000E+00  1.09613E-01
      -3    -1     0     0     0   501  0.000000000E+00  0.000000000E+00  1.056731137E+03  1.056731137E+03  0.000000000E+00  0.00000E+00  9.000E+00
      21    -1     0     0   501   502  0.000000000E+00  0.000000000E+00 -1.657940147E+02  1.657940147E+02  0.000000000E+00  0.00000E+00  9.000E+00
      25     1     1     2     0     0  1.344517682E+02  9.867516879E+01  3.457273703E+01  2.112684100E+02  1.250000000E+02  0.00000E+00  9.000E+00
      25     1     1     2     0     0  6.710639872E+01 -2.053163140E+02  2.110599078E+02  3.268475826E+02  1.250000000E+02  0.00000E+00  9.000E+00
      -3     1     1     2     0   502 -2.015581669E+02  1.066411453E+02  6.453044779E+02  6.844091596E+02  1.078959322E-05  0.00000E+00  9.000E+00
#rwgt            1           1   3.0116886567025727E-002           5      128619           0
</event>
<event>
      5   9999  3.79277E-02  6.15910E+01 -1.00000E+00  1.34099E-01
      21    -1     0     0   502   501  0.000000000E+00  0.000000000E+00  3.313225129E+02  3.313225129E+02  0.000000000E+00  0.00000E+00  9.000E+00
      21    -1     0     0   501   511  0.000000000E+00  0.000000000E+00 -2.013518722E+02  2.013518722E+02  0.000000000E+00  0.00000E+00  9.000E+00
      25     1     1     2     0     0 -6.718087766E+01  3.574454670E+01  1.269634724E+02  1.937412353E+02  1.250000000E+02  0.00000E+00  9.000E+00
      25     1     1     2     0     0  1.274119550E+02 -2.287315405E+01  1.132722628E+02  2.126325303E+02  1.250000000E+02  0.00000E+00  9.000E+00
      21     1     1     2   502   511 -6.023107729E+01 -1.287139265E+01 -1.102650944E+02  1.263006194E+02  1.348699152E-06  0.00000E+00  9.000E+00
#rwgt            1           1   2.8495468855156841E-002           5      128672           0
</event>
<event>
      5   9999  3.79277E-02  3.02471E+01 -1.00000E+00  1.52793E-01
      21    -1     0     0   502   501  0.000000000E+00  0.000000000E+00  2.952344769E+02  2.952344769E+02  0.000000000E+00  0.00000E+00  9.000E+00
      21    -1     0     0   512   502  0.000000000E+00  0.000000000E+00 -5.069273805E+02  5.069273805E+02  0.000000000E+00  0.00000E+00  9.000E+00
      25     1     1     2     0     0 -1.832037100E+02  1.660412477E+02  1.327701357E-01  2.770529064E+02  1.250000000E+02  0.00000E+00  9.000E+00
      25     1     1     2     0     0  2.122087377E+02 -1.746199024E+02  9.173641521E+00  3.020493575E+02  1.250000000E+02  0.00000E+00  9.000E+00
      21     1     1     2   512   501 -2.900502763E+01  8.578654661E+00 -2.209993153E+02  2.230595936E+02  2.697398305E-06  0.00000E+00  9.000E+00
#rwgt            1           1   4.4145444185254325E-002           5      128916           0
</event>
<event>
      5   9999  3.79277E-02  6.49284E+01 -1.00000E+00  1.32897E-01
      21    -1     0     0   511   501  0.000000000E+00  0.000000000E+00  9.970933711E+02  9.970933711E+02  0.000000000E+00  0.00000E+00  9.000E+00
      21    -1     0     0   501   502  0.000000000E+00  0.000000000E+00 -7.984396468E+01  7.984396468E+01  0.000000000E+00  0.00000E+00  9.000E+00
      25     1     1     2     0     0  7.354840262E+01  8.887040813E+01  7.764305087E+01  1.869779675E+02  1.250000000E+02  0.00000E+00  9.000E+00
      25     1     1     2     0     0 -1.102769976E+02 -3.532881256E+01  2.886539920E+02  3.351943739E+02  1.250000000E+02  0.00000E+00  9.000E+00
      21     1     1     2   511   502  3.672859495E+01 -5.354159556E+01  5.509523636E+02  5.547649945E+02  7.629394531E-06  0.00000E+00  9.000E+00
#rwgt            1           1   2.9604235070556900E-002           5      129108           0
</event>
<event>
      5   9999 -3.79277E-02  3.49993E+01 -1.00000E+00  1.48531E-01
      21    -1     0     0   502   501  0.000000000E+00  0.000000000E+00  4.300515677E+02  4.300515677E+02  0.000000000E+00  0.00000E+00  9.000E+00
      21    -1     0     0   512   502  0.000000000E+00  0.000000000E+00 -1.637837884E+02  1.637837884E+02  0.000000000E+00  0.00000E+00  9.000E+00
      25     1     1     2     0     0  4.395577891E+01  1.677176843E+02  2.864188302E+02  3.573822581E+02  1.250000000E+02  0.00000E+00  9.000E+00
      25     1     1     2     0     0 -5.712236608E+01 -1.352894316E+02  5.711957019E+00  1.929347596E+02  1.250000000E+02  0.00000E+00  9.000E+00
      21     1     1     2   512   501  1.316658717E+01 -3.242825271E+01 -2.586300790E+01  4.351833831E+01  3.371747881E-07  0.00000E+00  9.000E+00
#rwgt            1           1 -0.26244201917813487                5      129186           0
</event>
<event>
      5   9999  3.79277E-02  8.39962E+00 -1.00000E+00  2.04941E-01
      21    -1     0     0   502   501  0.000000000E+00  0.000000000E+00  2.184278900E+02  2.184278900E+02  0.000000000E+00  0.00000E+00  9.000E+00
      21    -1     0     0   501   511  0.000000000E+00  0.000000000E+00 -1.799013522E+02  1.799013522E+02  0.000000000E+00  0.00000E+00  9.000E+00
      25     1     1     2     0     0  1.099567327E+02  3.882495808E+01  1.114756396E+02  2.040825291E+02  1.250000000E+02  0.00000E+00  9.000E+00
      25     1     1     2     0     0 -1.016934578E+02 -4.033226831E+01 -5.594311379E+01  1.752794432E+02  1.250000000E+02  0.00000E+00  9.000E+00
      21     1     1     2   502   511 -8.263274925E+00  1.507310227E+00 -1.700598808E+01  1.896726989E+01  0.000000000E+00  0.00000E+00  9.000E+00
#rwgt            1           1   2.8466031741986489E-002           5      129280           0
</event>
<event>
      5   9999  3.79277E-02  3.43689E+01 -1.00000E+00  1.49049E-01
      21    -1     0     0   502   501  0.000000000E+00  0.000000000E+00  1.956868390E+02  1.956868390E+02  0.000000000E+00  0.00000E+00  9.000E+00
      21    -1     0     0   501   512  0.000000000E+00  0.000000000E+00 -1.924538287E+02  1.924538287E+02  0.000000000E+00  0.00000E+00  9.000E+00
      25     1     1     2     0     0  1.304184980E+02 -3.230245542E+01  3.739507093E+00  1.835522191E+02  1.250000000E+02  0.00000E+00  9.000E+00
      25     1     1     2     0     0 -1.027936682E+02  5.274971831E+01 -1.596513676E-01  1.702177913E+02  1.250000000E+02  0.00000E+00  9.000E+00
      21     1     1     2   502   512 -2.762482979E+01 -2.044726289E+01 -3.468454435E-01  3.437065729E+01  5.727141650E-07  0.00000E+00  9.000E+00
#rwgt            1           1   3.6938011931295187E-002           5      129547           0
</event>
<event>
      5   9999  3.79277E-02  1.44006E+02 -1.00000E+00  1.17100E-01
       2    -1     0     0   502     0  0.000000000E+00  0.000000000E+00  1.450726851E+03  1.450726851E+03  0.000000000E+00  0.00000E+00  9.000E+00
      21    -1     0     0   501   502  0.000000000E+00  0.000000000E+00 -1.532612405E+02  1.532612405E+02  0.000000000E+00  0.00000E+00  9.000E+00
      25     1     1     2     0     0 -2.202112636E+02 -9.826853516E+00  1.072280080E+02  2.751588875E+02  1.250000000E+02  0.00000E+00  9.000E+00
      25     1     1     2     0     0  1.167833474E+02  1.100290197E+02  9.556909718E+01  2.247291431E+02  1.250000000E+02  0.00000E+00  9.000E+00
       2     1     1     2   501     0  1.034279162E+02 -1.002021662E+02  1.094668505E+03  1.104100060E+03  0.000000000E+00  0.00000E+00  9.000E+00
#rwgt            1           1   3.1100364023038438E-002           5      129697           0
</event>
<event>
      5   9999  3.79277E-02  1.62433E+02 -1.00000E+00  1.15039E-01
      21    -1     0     0   502   511  0.000000000E+00  0.000000000E+00  9.314478574E+02  9.314478574E+02  0.000000000E+00  0.00000E+00  9.000E+00
      21    -1     0     0   501   502  0.000000000E+00  0.000000000E+00 -2.068640522E+02  2.068640522E+02  0.000000000E+00  0.00000E+00  9.000E+00
      25     1     1     2     0     0  2.127636015E+02 -1.059439237E+02 -4.239172677E+01  2.718722560E+02  1.250000000E+02  0.00000E+00  9.000E+00
      25     1     1     2     0     0 -5.363932657E+01  7.332527639E+01  1.099975412E+02  1.896792888E+02  1.250000000E+02  0.00000E+00  9.000E+00
      21     1     1     2   501   511 -1.591242749E+02  3.261864732E+01  6.569779907E+02  6.767603648E+02  1.321449896E-05  0.00000E+00  9.000E+00
#rwgt            1           1   3.6130979208382423E-002           5      129774           0
</event>
<event>
      5   9999  3.79277E-02  2.18617E+01 -1.00000E+00  1.63242E-01
      21    -1     0     0   502   501  0.000000000E+00  0.000000000E+00  4.983370359E+01  4.983370359E+01  0.000000000E+00  0.00000E+00  9.000E+00
      21    -1     0     0   512   502  0.000000000E+00  0.000000000E+00 -1.915487924E+03  1.915487924E+03  0.000000000E+00  0.00000E+00  9.000E+00
      25     1     1     2     0     0  8.336982196E+01  2.345551492E+02 -7.523537388E+02  8.022641669E+02  1.250000000E+02  0.00000E+00  9.000E+00
      25     1     1     2     0     0 -9.634405991E+01 -2.169596030E+02 -7.073714119E+02  7.565401256E+02  1.250000000E+02  0.00000E+00  9.000E+00
      21     1     1     2   512   501  1.297423795E+01 -1.759554618E+01 -4.059290694E+02  4.065173348E+02  7.629394531E-06  0.00000E+00  9.000E+00
#rwgt            1           1   3.8297632247487619E-002           5      129848           0
</event>
<event>
      5   9999  3.79277E-02  1.33515E+01 -1.00000E+00  1.82283E-01
      21    -1     0     0   502   501  0.000000000E+00  0.000000000E+00  1.562952815E+02  1.562952815E+02  0.000000000E+00  0.00000E+00  9.000E+00
      21    -1     0     0   501   511  0.000000000E+00  0.000000000E+00 -3.927846179E+02  3.927846179E+02  0.000000000E+00  0.00000E+00  9.000E+00
      25     1     1     2     0     0 -1.854375590E+02 -4.291037909E+00 -2.177865985E+01  2.247327553E+02  1.250000000E+02  0.00000E+00  9.000E+00
      25     1     1     2     0     0  1.798552990E+02  1.641953739E+01 -1.701732824E+02  2.778515356E+02  1.250000000E+02  0.00000E+00  9.000E+00
      21     1     1     2   502   511  5.582260027E+00 -1.212849948E+01 -4.453739416E+01  4.649560845E+01  4.768371582E-07  0.00000E+00  9.000E+00
#rwgt            1           1   2.7342254586255253E-002           5      130088           0
</event>
<event>
      5   9999  3.79277E-02  2.29333E+01 -1.00000E+00  1.61610E-01
      21    -1     0     0   512   501  0.000000000E+00  0.000000000E+00  5.217509983E+02  5.217509983E+02  0.000000000E+00  0.00000E+00  9.000E+00
      21    -1     0     0   501   502  0.000000000E+00  0.000000000E+00 -1.040435875E+02  1.040435875E+02  0.000000000E+00  0.00000E+00  9.000E+00
      25     1     1     2     0     0  9.380038505E+01 -9.081630503E+01  1.955966776E+02  2.663253157E+02  1.250000000E+02  0.00000E+00  9.000E+00
      25     1     1     2     0     0 -8.128561477E+01  1.100339369E+02  5.859516447E+01  1.943533168E+02  1.250000000E+02  0.00000E+00  9.000E+00
      21     1     1     2   512   502 -1.251477028E+01 -1.921763191E+01  1.635155687E+02  1.651159534E+02  1.907348633E-06  0.00000E+00  9.000E+00
#rwgt            1           1   3.5467735509672797E-002           5      130390           0
</event>
<event>
      5   9999  3.79277E-02  1.90576E+01 -1.00000E+00  1.68117E-01
      21    -1     0     0   502   501  0.000000000E+00  0.000000000E+00  5.679209690E+02  5.679209690E+02  0.000000000E+00  0.00000E+00  9.000E+00
      21    -1     0     0   501   511  0.000000000E+00  0.000000000E+00 -2.679842542E+03  2.679842542E+03  0.000000000E+00  0.00000E+00  9.000E+00
      25     1     1     2     0     0 -3.833754963E+00  1.090835082E+02  9.038343470E+01  1.889658030E+02  1.250000000E+02  0.00000E+00  9.000E+00
      25     1     1     2     0     0  2.065829535E+01 -1.001320929E+02  4.129865665E+02  4.434366982E+02  1.250000000E+02  0.00000E+00  9.000E+00
      21     1     1     2   502   511 -1.682454038E+01 -8.951415279E+00 -2.615291574E+03  2.615361009E+03  4.315837288E-05  0.00000E+00  9.000E+00
#rwgt            1           1   4.9854852647188197E-002           5      130526           0
</event>
<event>
      5   9999  3.79277E-02  6.44694E+01 -1.00000E+00  1.33057E-01
      21    -1     0     0   512   501  0.000000000E+00  0.000000000E+00  1.487668658E+02  1.487668658E+02  0.000000000E+00  0.00000E+00  9.000E+00
      21    -1     0     0   501   502  0.000000000E+00  0.000000000E+00 -8.737791428E+02  8.737791428E+02  0.000000000E+00  0.00000E+00  9.000E+00
      25     1     1     2     0     0  1.376900389E+02  1.636374171E+02 -5.347913226E+02  5.893746770E+02  1.250000000E+02  0.00000E+00  9.000E+00
      25     1     1     2     0     0 -1.918087304E+02 -1.986727502E+02 -2.063721141E+02  3.667095584E+02  1.250000000E+02  0.00000E+00  9.000E+00
      21     1     1     2   512   502  5.411869146E+01  3.503533316E+01  1.615115970E+01  6.646177319E+01  4.129530925E-07  0.00000E+00  9.000E+00
#rwgt            1           1   2.5775968628765692E-002           5      130715           0
</event>
<event>
      5   9999  3.79277E-02  7.37280E+01 -1.00000E+00  1.30090E-01
      21    -1     0     0   502   501  0.000000000E+00  0.000000000E+00  1.590760582E+02  1.590760582E+02  0.000000000E+00  0.00000E+00  9.000E+00
      21    -1     0     0   511   502  0.000000000E+00  0.000000000E+00 -1.288987974E+03  1.288987974E+03  0.000000000E+00  0.00000E+00  9.000E+00
      25     1     1     2     0     0 -2.185678336E+01 -1.638112006E+02 -5.194231302E+01  2.136231080E+02  1.250000000E+02  0.00000E+00  9.000E+00
      25     1     1     2     0     0 -5.022605850E+01  1.483231591E+02 -5.358922951E+01  2.074107567E+02  1.250000000E+02  0.00000E+00  9.000E+00
      21     1     1     2   511   501  7.208284186E+01  1.548804146E+01 -1.024380373E+03  1.027030167E+03  0.000000000E+00  0.00000E+00  9.000E+00
#rwgt            1           1   3.6939103572141307E-002           5      130844           0
</event>
<event>
      5   9999  3.79277E-02  2.49419E+01 -1.00000E+00  1.58827E-01
      21    -1     0     0   502   512  0.000000000E+00  0.000000000E+00  4.330752428E+02  4.330752428E+02  0.000000000E+00  0.00000E+00  9.000E+00
      21    -1     0     0   501   502  0.000000000E+00  0.000000000E+00 -2.362346301E+03  2.362346301E+03  0.000000000E+00  0.00000E+00  9.000E+00
      25     1     1     2     0     0 -2.133322173E+02 -8.079276054E+01 -2.276721455E+03  2.291533043E+03  1.250000000E+02  0.00000E+00  9.000E+00
      25     1     1     2     0     0  2.149455646E+02  5.590309259E+01  1.320235645E+02  2.870226003E+02  1.250000000E+02  0.00000E+00  9.000E+00
      21     1     1     2   501   512 -1.613347358E+00  2.488966795E+01  2.154268325E+02  2.168659000E+02  0.000000000E+00  0.00000E+00  9.000E+00
#rwgt            1           1   1.2267529903766766E-002           5      130939           0
</event>
<event>
      5   9999  3.79277E-02  2.05122E+01 -1.00000E+00  1.65468E-01
      21    -1     0     0   511   501  0.000000000E+00  0.000000000E+00  3.109418381E+01  3.109418381E+01  0.000000000E+00  0.00000E+00  9.000E+00
      21    -1     0     0   501   502  0.000000000E+00  0.000000000E+00 -2.214481062E+03  2.214481062E+03  0.000000000E+00  0.00000E+00  9.000E+00
      25     1     1     2     0     0  7.652403707E+01  8.260450267E+01 -6.621887452E+02  6.832264386E+02  1.250000000E+02  0.00000E+00  9.000E+00
      25     1     1     2     0     0 -9.339580443E+01 -9.427040111E+01 -1.529422480E+03  1.540249268E+03  1.250000000E+02  0.00000E+00  9.000E+00
      21     1     1     2   511   502  1.687176737E+01  1.166589844E+01  8.224347609E+00  2.209953877E+01  1.052827938E-06  0.00000E+00  9.000E+00
#rwgt            1           1   7.5900608778803474E-002           5      131152           0
</event>
<event>
      5   9999  3.79277E-02  1.13158E+02 -1.00000E+00  1.21460E-01
      21    -1     0     0   502   501  0.000000000E+00  0.000000000E+00  4.660765167E+02  4.660765167E+02  0.000000000E+00  0.00000E+00  9.000E+00
      21    -1     0     0   501   512  0.000000000E+00  0.000000000E+00 -1.666377478E+02  1.666377478E+02  0.000000000E+00  0.00000E+00  9.000E+00
      25     1     1     2     0     0  1.248739477E+02  1.366542958E+02  2.909254220E+02  3.667839971E+02  1.250000000E+02  0.00000E+00  9.000E+00
      25     1     1     2     0     0 -4.947465412E+01 -5.227582712E+01 -2.818690137E+01  1.469694013E+02  1.250000000E+02  0.00000E+00  9.000E+00
      21     1     1     2   502   512 -7.539929355E+01 -8.437846870E+01  3.670024827E+01  1.189608661E+02  1.719260824E-06  0.00000E+00  9.000E+00
#rwgt            1           1   3.5359368664216517E-002           5      131315           0
</event>
<event>
      5   9999  3.79277E-02  3.45026E+01 -1.00000E+00  1.48938E-01
      21    -1     0     0   511   501  0.000000000E+00  0.000000000E+00  2.929019269E+02  2.929019269E+02  0.000000000E+00  0.00000E+00  9.000E+00
      21    -1     0     0   501   502  0.000000000E+00  0.000000000E+00 -2.276198496E+02  2.276198496E+02  0.000000000E+00  0.00000E+00  9.000E+00
      25     1     1     2     0     0  1.135292812E+02  1.082234436E+02  1.159824040E+02  2.316854106E+02  1.250000000E+02  0.00000E+00  9.000E+00
      25     1     1     2     0     0 -1.028601362E+02 -1.410349770E+02 -9.323276231E+01  2.340692640E+02  1.250000000E+02  0.00000E+00  9.000E+00
      21     1     1     2   511   502 -1.066914503E+01  3.281153344E+01  4.253243558E+01  5.476710197E+01  4.768371582E-07  0.00000E+00  9.000E+00
#rwgt            1           1   9.4859935208796251E-002           5      131417           0
</event>
<event>
      5   9999  3.79277E-02  2.07979E+01 -1.00000E+00  1.64979E-01
      21    -1     0     0   512   501  0.000000000E+00  0.000000000E+00  1.264423512E+03  1.264423512E+03  0.000000000E+00  0.00000E+00  9.000E+00
      21    -1     0     0   501   502  0.000000000E+00  0.000000000E+00 -4.625310730E+01  4.625310730E+01  0.000000000E+00  0.00000E+00  9.000E+00
      25     1     1     2     0     0  1.379231857E+02 -5.967438928E+01  2.561950188E+02  3.222494772E+02  1.250000000E+02  0.00000E+00  9.000E+00
      25     1     1     2     0     0 -1.322483124E+02  7.968313330E+01  7.655991954E+02  7.909526824E+02  1.250000000E+02  0.00000E+00  9.000E+00
      21     1     1     2   512   502 -5.674873285E+00 -2.000874402E+01  1.963761906E+02  1.974744597E+02  2.697398305E-06  0.00000E+00  9.000E+00
#rwgt            1           1   4.0166249343611210E-002           5      131538           0
</event>
<event>
      5   9999  3.79277E-02  6.92467E+01 -1.00000E+00  1.31459E-01
       2    -1     0     0   502     0  0.000000000E+00  0.000000000E+00  1.485045807E+03  1.485045807E+03  0.000000000E+00  0.00000E+00  9.000E+00
      21    -1     0     0   501   502  0.000000000E+00  0.000000000E+00 -7.456302380E+02  7.456302380E+02  0.000000000E+00  0.00000E+00  9.000E+00
      25     1     1     2     0     0 -5.351521434E+00  2.482122604E+02 -4.977690435E+02  5.701201502E+02  1.250000000E+02  0.00000E+00  9.000E+00
      25     1     1     2     0     0  4.923701743E+01 -1.946476272E+02 -1.444854695E+02  2.771516437E+02  1.250000000E+02  0.00000E+00  9.000E+00
       2     1     1     2   501     0 -4.388549599E+01 -5.356463317E+01  1.381670082E+03  1.383404251E+03  1.525878906E-05  0.00000E+00  9.000E+00
#rwgt            1           1   4.1114113759316777E-002           5      131772           0
</event>
<event>
      5   9999  3.79277E-02  6.69400E+01 -1.00000E+00  1.32211E-01
      21    -1     0     0   502   511  0.000000000E+00  0.000000000E+00  1.275186178E+02  1.275186178E+02  0.000000000E+00  0.00000E+00  9.000E+00
      21    -1     0     0   501   502  0.000000000E+00  0.000000000E+00 -5.547630080E+02  5.547630080E+02  0.000000000E+00  0.00000E+00  9.000E+00
      25     1     1     2     0     0  2.339068709E+00 -1.287430000E+02 -3.609657051E+02  4.031147126E+02  1.250000000E+02  0.00000E+00  9.000E+00
      25     1     1     2     0     0  2.805900719E+01  6.910302632E+01 -1.236625768E+02  1.909973011E+02  1.250000000E+02  0.00000E+00  9.000E+00
      21     1     1     2   501   511 -3.039807590E+01  5.963997368E+01  5.738389168E+01  8.816961213E+01  1.348699152E-06  0.00000E+00  9.000E+00
#rwgt            1           1   3.2539278755186758E-002           5      131896           0
</event>
<event>
      5   9999  3.79277E-02  5.47723E+01 -1.00000E+00  1.36854E-01
      21    -1     0     0   502   501  0.000000000E+00  0.000000000E+00  3.590944781E+02  3.590944781E+02  0.000000000E+00  0.00000E+00  9.000E+00
      21    -1     0     0   501   512  0.000000000E+00  0.000000000E+00 -2.262009334E+02  2.262009334E+02  0.000000000E+00  0.00000E+00  9.000E+00
      25     1     1     2     0     0  1.067081787E+02  3.944451725E+01 -8.121138550E+01  1.875174511E+02  1.250000000E+02  0.00000E+00  9.000E+00
      25     1     1     2     0     0 -1.605292372E+02 -4.960836535E+01  2.545998634E+02  3.296615178E+02  1.250000000E+02  0.00000E+00  9.000E+00
      21     1     1     2   502   512  5.382105850E+01  1.016384809E+01 -4.049493313E+01  6.811644262E+01  6.743495762E-07  0.00000E+00  9.000E+00
#rwgt            1           1   4.2595338716754833E-002           5      132096           0
</event>
<event>
      5   9999  3.79277E-02  1.01838E+02 -1.00000E+00  1.23473E-01
      21    -1     0     0   502   501  0.000000000E+00  0.000000000E+00  1.369923708E+03  1.369923708E+03  0.000000000E+00  0.00000E+00  9.000E+00
      21    -1     0     0   501   511  0.000000000E+00  0.000000000E+00 -8.359055315E+01  8.359055315E+01  0.000000000E+00  0.00000E+00  9.000E+00
      25     1     1     2     0     0 -1.441864406E+01 -1.149821514E+02  5.619496032E+02  5.872317677E+02  1.250000000E+02  0.00000E+00  9.000E+00
      25     1     1     2     0     0  1.315966277E+01  2.168128488E+02  7.221716845E+02  7.644199958E+02  1.250000000E+02  0.00000E+00  9.000E+00
      21     1     1     2   502   511  1.258981290E+00 -1.018306974E+02  2.211866631E+00  1.018624971E+02  1.519333970E-06  0.00000E+00  9.000E+00
#rwgt            1           1   2.9966594253127411E-002           5      132249           0
</event>
<event>
      5   9999  3.79277E-02  2.80912E+01 -1.00000E+00  1.55050E-01
      21    -1     0     0   502   501  0.000000000E+00  0.000000000E+00  3.807854525E+02  3.807854525E+02  0.000000000E+00  0.00000E+00  9.000E+00
      21    -1     0     0   512   502  0.000000000E+00  0.000000000E+00 -2.498546326E+02  2.498546326E+02  0.000000000E+00  0.00000E+00  9.000E+00
      25     1     1     2     0     0  1.754580078E+02 -9.590380829E+01 -1.224527432E+02  2.657117372E+02  1.250000000E+02  0.00000E+00  9.000E+00
      25     1     1     2     0     0 -1.498713551E+02  8.430902049E+01  2.602180806E+02  3.360176833E+02  1.250000000E+02  0.00000E+00  9.000E+00
      21     1     1     2   512   501 -2.558665265E+01  1.159478780E+01 -6.834517445E+00  2.891066458E+01  3.039252468E-07  0.00000E+00  9.000E+00
#rwgt            1           1   2.9862469403516726E-002           5      132399           0
</event>
<event>
      5   9999  3.79277E-02  3.61024E+01 -1.00000E+00  1.47657E-01
      21    -1     0     0   511   501  0.000000000E+00  0.000000000E+00  1.365996582E+02  1.365996582E+02  0.000000000E+00  0.00000E+00  9.000E+00
      21    -1     0     0   501   502  0.000000000E+00  0.000000000E+00 -4.383222852E+02  4.383222852E+02  0.000000000E+00  0.00000E+00  9.000E+00
      25     1     1     2     0     0 -3.855805283E+01  1.481430316E+02 -2.381226871E+02  3.094519274E+02  1.250000000E+02  0.00000E+00  9.000E+00
      25     1     1     2     0     0  6.905673337E+01 -1.674618636E+02 -6.454813669E+01  2.293551180E+02  1.250000000E+02  0.00000E+00  9.000E+00
      21     1     1     2   511   502 -3.049868054E+01  1.931883201E+01  9.481968776E-01  3.611489806E+01  1.828051231E-07  0.00000E+00  9.000E+00
#rwgt            1           1   4.3913598108052732E-002           5      132513           0
</event>
<event>
      5   9999  3.79277E-02  1.10761E+02 -1.00000E+00  1.21864E-01
      21    -1     0     0   502   501  0.000000000E+00  0.000000000E+00  2.303199858E+02  2.303199858E+02  0.000000000E+00  0.00000E+00  9.000E+00
      21    -1     0     0   512   502  0.000000000E+00  0.000000000E+00 -1.119390448E+03  1.119390448E+03  0.000000000E+00  0.00000E+00  9.000E+00
      25     1     1     2     0     0  9.540182215E+01 -1.894492397E+02 -5.143274197E+01  2.515210708E+02  1.250000000E+02  0.00000E+00  9.000E+00
      25     1     1     2     0     0 -1.191366491E+02  8.126168339E+01  5.507364403E+01  1.986331005E+02  1.250000000E+02  0.00000E+00  9.000E+00
      21     1     1     2   512   501  2.373482698E+01  1.081875563E+02 -8.927113646E+02  8.995562628E+02  1.078959322E-05  0.00000E+00  9.000E+00
#rwgt            1           1   3.4885179828396055E-002           5      132766           0
</event>
<event>
      5   9999  3.79277E-02  7.81302E+01 -1.00000E+00  1.28849E-01
       2    -1     0     0   502     0  0.000000000E+00  0.000000000E+00  3.316979693E+03  3.316979693E+03  0.000000000E+00  0.00000E+00  9.000E+00
      21    -1     0     0   501   502  0.000000000E+00  0.000000000E+00 -1.123739121E+02  1.123739121E+02  0.000000000E+00  0.00000E+00  9.000E+00
      25     1     1     2     0     0 -1.740268564E+02 -4.302518866E+01  9.593174210E+01  2.386721868E+02  1.250000000E+02  0.00000E+00  9.000E+00
      25     1     1     2     0     0  2.248062568E+02  1.024034462E+02  4.334904851E+02  5.143571907E+02  1.250000000E+02  0.00000E+00  9.000E+00
       2     1     1     2   501     0 -5.077940039E+01 -5.937825757E+01  2.675183554E+03  2.676324228E+03  6.103515625E-05  0.00000E+00  9.000E+00
#rwgt            1           1   3.7044973458107179E-002           5      132861           0
</event>
<event>
      5   9999  3.79277E-02  5.34490E+01 -1.00000E+00  1.37443E-01
      21    -1     0     0   502   501  0.000000000E+00  0.000000000E+00  1.147236148E+02  1.147236148E+02  0.000000000E+00  0.00000E+00  9.000E+00
      21    -1     0     0   501   511  0.000000000E+00  0.000000000E+00 -1.895240083E+03  1.895240083E+03  0.000000000E+00  0.00000E+00  9.000E+00
      25     1     1     2     0     0 -1.489514616E+02  8.907862581E+01 -2.799968205E+02  3.523418212E+02  1.250000000E+02  0.00000E+00  9.000E+00
      25     1     1     2     0     0  9.940111097E+01 -6.903964333E+01 -1.887051664E+01  1.750089987E+02  1.250000000E+02  0.00000E+00  9.000E+00
      21     1     1     2   502   511  4.955035061E+01 -2.003898248E+01 -1.481649132E+03  1.482612878E+03  2.157918644E-05  0.00000E+00  9.000E+00
#rwgt            1           1  0.12332598364163348                5      132926           0
</event>
<event>
      5   9999  3.79277E-02  2.26037E+01 -1.00000E+00  1.62100E-01
      21    -1     0     0   502   501  0.000000000E+00  0.000000000E+00  2.770023058E+02  2.770023058E+02  0.000000000E+00  0.00000E+00  9.000E+00
       2    -1     0     0   501     0  0.000000000E+00  0.000000000E+00 -2.074403635E+02  2.074403635E+02  0.000000000E+00  0.00000E+00  9.000E+00
      25     1     1     2     0     0  3.942856890E+01  1.215483626E+01  1.638103561E+02  2.101456277E+02  1.250000000E+02  0.00000E+00  9.000E+00
      25     1     1     2     0     0 -5.647542404E+01 -2.699849257E+01  3.416295101E+01  1.439114288E+02  1.250000000E+02  0.00000E+00  9.000E+00
       2     1     1     2   502     0  1.704685514E+01  1.484365632E+01 -1.284113648E+02  1.303856127E+02  0.000000000E+00  0.00000E+00  9.000E+00
#rwgt            1           1   5.3775447853850612E-002           5      133092           0
</event>
<event>
      5   9999  3.79277E-02  1.44571E+02 -1.00000E+00  1.17032E-01
       5    -1     0     0   502     0  0.000000000E+00  0.000000000E+00  4.125093992E+02  4.125093992E+02  0.000000000E+00  0.00000E+00  9.000E+00
      21    -1     0     0   501   502  0.000000000E+00  0.000000000E+00 -3.697720810E+02  3.697720810E+02  0.000000000E+00  0.00000E+00  9.000E+00
      25     1     1     2     0     0  1.555414011E+02  1.431533119E+02 -4.375572561E+01  2.494505195E+02  1.250000000E+02  0.00000E+00  9.000E+00
      25     1     1     2     0     0 -2.250847482E+02 -1.640745099E+01 -1.169454177E+02  2.832553248E+02  1.250000000E+02  0.00000E+00  9.000E+00
       5     1     1     2   501     0  6.954334713E+01 -1.267458609E+02  2.034384616E+02  2.495756359E+02  0.000000000E+00  0.00000E+00  9.000E+00
#rwgt            1           1   1.3771993453595800E-002           5      133237           0
</event>
<event>
      5   9999  3.79277E-02  6.10396E+01 -1.00000E+00  1.34306E-01
      21    -1     0     0   502   511  0.000000000E+00  0.000000000E+00  2.038475516E+02  2.038475516E+02  0.000000000E+00  0.00000E+00  9.000E+00
      21    -1     0     0   501   502  0.000000000E+00  0.000000000E+00 -2.204080096E+03  2.204080096E+03  0.000000000E+00  0.00000E+00  9.000E+00
      25     1     1     2     0     0  1.376366119E+02 -3.256086778E+01 -1.041733654E+03  1.058696393E+03  1.250000000E+02  0.00000E+00  9.000E+00
      25     1     1     2     0     0 -1.970616043E+02  1.861427034E+01 -1.136860670E+03  1.160713983E+03  1.250000000E+02  0.00000E+00  9.000E+00
      21     1     1     2   501   511  5.942499245E+01  1.394659743E+01  1.783617795E+02  1.885172716E+02  5.394796609E-06  0.00000E+00  9.000E+00
#rwgt            1           1  0.10223623672959119                5      133399           0
</event>
<event>
      5   9999  3.79277E-02  8.89574E+00 -1.00000E+00  2.01821E-01
      21    -1     0     0   502   501  0.000000000E+00  0.000000000E+00  1.018879054E+02  1.018879054E+02  0.000000000E+00  0.00000E+00  9.000E+00
      21    -1     0     0   501   512  0.000000000E+00  0.000000000E+00 -4.829505265E+02  4.829505265E+02  0.000000000E+00  0.00000E+00  9.000E+00
      25     1     1     2     0     0  8.348288494E+01 -1.097333813E+02 -2.075185587E+02  2.787467654E+02  1.250000000E+02  0.00000E+00  9.000E+00
      25     1     1     2     0     0 -8.887202924E+01  1.026558618E+02 -6.273864099E+01  1.949297325E+02  1.250000000E+02  0.00000E+00  9.000E+00
      21     1     1     2   502   512  5.389144294E+00  7.077519484E+00 -1.108054214E+02  1.111619340E+02  1.348699152E-06  0.00000E+00  9.000E+00
#rwgt            1           1   3.8539564235679377E-002           5      133506           0
</event>
<event>
      5   9999  3.79277E-02  3.87759E+01 -1.00000E+00  1.45682E-01
      21    -1     0     0   502   511  0.000000000E+00  0.000000000E+00  9.012134544E+02  9.012134544E+02  0.000000000E+00  0.00000E+00  9.000E+00
      21    -1     0     0   501   502  0.000000000E+00  0.000000000E+00 -3.583434744E+02  3.583434744E+02  0.000000000E+00  0.00000E+00  9.000E+00
      25     1     1     2     0     0 -1.053152274E+02  4.042130880E+01 -7.630050995E+01  1.848565583E+02  1.250000000E+02  0.00000E+00  9.000E+00
      25     1     1     2     0     0  1.262510589E+02 -7.305964117E+01 -1.867111800E+02  2.678863673E+02  1.250000000E+02  0.00000E+00  9.000E+00
      21     1     1     2   501   511 -2.093583150E+01  3.263833237E+01  8.058816699E+02  8.068140032E+02  1.078959322E-05  0.00000E+00  9.000E+00
#rwgt            1           1   4.4486767281127118E-002           5      133720           0
</event>
<event>
      5   9999  3.79277E-02  6.98555E+01 -1.00000E+00  1.31266E-01
      21    -1     0     0   502   512  0.000000000E+00  0.000000000E+00  5.766955447E+02  5.766955447E+02  0.000000000E+00  0.00000E+00  9.000E+00
      21    -1     0     0   501   502  0.000000000E+00  0.000000000E+00 -2.953973594E+02  2.953973594E+02  0.000000000E+00  0.00000E+00  9.000E+00
      25     1     1     2     0     0  1.252248058E+02  2.199835689E+02  3.027118598E+02  4.139245011E+02  1.250000000E+02  0.00000E+00  9.000E+00
      25     1     1     2     0     0 -1.950801877E+02 -2.198337609E+02 -1.166819274E+02  3.400335781E+02  1.250000000E+02  0.00000E+00  9.000E+00
      21     1     1     2   501   512  6.985538197E+01 -1.498079973E-01  9.526825293E+01  1.181348249E+02  1.907348633E-06  0.00000E+00  9.000E+00
#rwgt            1           1   2.3148691765135562E-002           5      133846           0
</event>
<event>
      5   9999  3.79277E-02  1.60576E+01 -1.00000E+00  1.74641E-01
      21    -1     0     0   502   511  0.000000000E+00  0.000000000E+00  7.202914236E+01  7.202914236E+01  0.000000000E+00  0.00000E+00  9.000E+00
      21    -1     0     0   501   502  0.000000000E+00  0.000000000E+00 -5.639541521E+02  5.639541521E+02  0.000000000E+00  0.00000E+00  9.000E+00
      25     1     1     2     0     0 -8.948160057E+01  9.041567911E+01 -2.300299993E+02  2.910682952E+02  1.250000000E+02  0.00000E+00  9.000E+00
      25     1     1     2     0     0  9.012773237E+01 -1.064602894E+02 -2.686474287E+02  3.274954081E+02  1.250000000E+02  0.00000E+00  9.000E+00
      21     1     1     2   501   511 -6.461318016E-01  1.604461030E+01  6.752418263E+00  1.741959122E+01  2.230201594E-07  0.00000E+00  9.000E+00
#rwgt            1           1   2.5614603062812321E-002           5      133936           0
</event>
<event>
      5   9999  3.79277E-02  1.65672E+02 -1.00000E+00  1.14708E-01
      21    -1     0     0   512   501  0.000000000E+00  0.000000000E+00  2.616027864E+02  2.616027864E+02  0.000000000E+00  0.00000E+00  9.000E+00
      21    -1     0     0   501   502  0.000000000E+00  0.000000000E+00 -6.143623253E+02  6.143623253E+02  0.000000000E+00  0.00000E+00  9.000E+00
      25     1     1     2     0     0  7.795748786E+01  3.375626517E+00 -2.772307577E+02  3.139596436E+02  1.250000000E+02  0.00000E+00  9.000E+00
      25     1     1     2     0     0 -1.647895016E+02 -1.444693558E+02 -2.256152844E+02  3.384586107E+02  1.250000000E+02  0.00000E+00  9.000E+00
      21     1     1     2   512   502  8.683201370E+01  1.410937292E+02  1.500865032E+02  2.235468575E+02  1.907348633E-06  0.00000E+00  9.000E+00
#rwgt            1           1   3.9615172603483621E-002           5      134217           0
</event>
<event>
      5   9999  3.79277E-02  3.08660E+01 -1.00000E+00  1.52186E-01
      21    -1     0     0   502   501  0.000000000E+00  0.000000000E+00  1.407774134E+02  1.407774134E+02  0.000000000E+00  0.00000E+00  9.000E+00
      21    -1     0     0   501   511  0.000000000E+00  0.000000000E+00 -6.616629508E+02  6.616629508E+02  0.000000000E+00  0.00000E+00  9.000E+00
      25     1     1     2     0     0 -2.109469876E+02  1.965124610E+00 -2.507573153E+02  3.507231451E+02  1.250000000E+02  0.00000E+00  9.000E+00
      25     1     1     2     0     0  1.914721483E+02  2.198152563E+01 -5.742423461E+01  2.367853749E+02  1.250000000E+02  0.00000E+00  9.000E+00
      21     1     1     2   502   511  1.947483932E+01 -2.394665024E+01 -2.127039874E+02  2.149318443E+02  0.000000000E+00  0.00000E+00  9.000E+00
#rwgt            1           1   4.1381443383796290E-002           5      134442           0
</event>
<event>
      5   9999  3.79277E-02  7.74577E+01 -1.00000E+00  1.29032E-01
      21    -1     0     0   502   501  0.000000000E+00  0.000000000E+00  4.671546901E+02  4.671546901E+02  0.000000000E+00  0.00000E+00  9.000E+00
      -1    -1     0     0     0   502  0.000000000E+00  0.000000000E+00 -1.396010378E+02  1.396010378E+02  0.000000000E+00  0.00000E+00  9.000E+00
      25     1     1     2     0     0 -8.968821169E+01  1.000676848E+02  3.449962861E+02  3.907748127E+02  1.250000000E+02  0.00000E+00  9.000E+00
      25     1     1     2     0     0  3.862392325E+01 -4.182566500E+01 -1.794538814E+01  1.385215891E+02  1.250000000E+02  0.00000E+00  9.000E+00
      -1     1     1     2     0   501  5.106428844E+01 -5.824201976E+01  5.027543558E-01  7.745932598E+01  1.561478881E-06  0.00000E+00  9.000E+00
#rwgt            1           1   3.8000826537660841E-002           5      134656           0
</event>
<event>
      5   9999  3.79277E-02  1.77306E+02 -1.00000E+00  1.13586E-01
      21    -1     0     0   502   501  0.000000000E+00  0.000000000E+00  1.262348714E+02  1.262348714E+02  0.000000000E+00  0.00000E+00  9.000E+00
      21    -1     0     0   511   502  0.000000000E+00  0.000000000E+00 -1.351228922E+03  1.351228922E+03  0.000000000E+00  0.00000E+00  9.000E+00
      25     1     1     2     0     0 -2.462463705E+02  8.059213518E+01 -7.324635048E+02  7.869308439E+02  1.250000000E+02  0.00000E+00  9.000E+00
      25     1     1     2     0     0  7.223055772E+01 -1.145916840E+02 -1.947999553E+01  1.853455630E+02  1.250000000E+02  0.00000E+00  9.000E+00
      21     1     1     2   511   501  1.740158128E+02  3.399954881E+01 -4.730505507E+02  5.051873869E+02  0.000000000E+00  0.00000E+00  9.000E+00
#rwgt            1           1   4.2344403827730220E-002           5      134739           0
</event>
<event>
      5   9999  3.79277E-02  3.79864E+01 -1.00000E+00  1.46245E-01
      21    -1     0     0   512   501  0.000000000E+00  0.000000000E+00  3.195126338E+01  3.195126338E+01  0.000000000E+00  0.00000E+00  9.000E+00
      21    -1     0     0   501   502  0.000000000E+00  0.000000000E+00 -1.771433437E+03  1.771433437E+03  0.000000000E+00  0.00000E+00  9.000E+00
      25     1     1     2     0     0  9.318511800E+01  2.736875561E+01 -1.363271968E+03  1.372431409E+03  1.250000000E+02  0.00000E+00  9.000E+00
      25     1     1     2     0     0 -5.529102771E+01 -3.001592608E+01 -3.656689137E+02  3.915313627E+02  1.250000000E+02  0.00000E+00  9.000E+00
      21     1     1     2   512   502 -3.789409029E+01  2.647170473E+00 -1.054129203E+01  3.942192826E+01  1.161908429E-06  0.00000E+00  9.000E+00
#rwgt            1           1  0.12966672286650080                5      134814           0
</event>
<event>
      5   9999  3.79277E-02  4.87955E+01 -1.00000E+00  1.39682E-01
      21    -1     0     0   511   501  0.000000000E+00  0.000000000E+00  9.738996703E+02  9.738996703E+02  0.000000000E+00  0.00000E+00  9.000E+00
      21    -1     0     0   501   502  0.000000000E+00  0.000000000E+00 -1.479268061E+02  1.479268061E+02  0.000000000E+00  0.00000E+00  9.000E+00
      25     1     1     2     0     0  2.596633822E+01 -1.125443246E+02  9.238330668E+01  1.936495574E+02  1.250000000E+02  0.00000E+00  9.000E+00
      25     1     1     2     0     0 -7.469811999E+01  1.100520313E+02 -1.017750456E+01  1.828109414E+02  1.250000000E+02  0.00000E+00  9.000E+00
      21     1     1     2   511   502  4.873178177E+01  2.492293303E+00  7.437670620E+02  7.453659777E+02  1.078959322E-05  0.00000E+00  9.000E+00
#rwgt            1           1   4.1803197892390440E-002           5      134936           0
</event>
<event>
      5   9999  3.79277E-02  4.08935E+01 -1.00000E+00  1.44248E-01
      21    -1     0     0   502   501  0.000000000E+00  0.000000000E+00  1.248545803E+03  1.248545803E+03  0.000000000E+00  0.00000E+00  9.000E+00
      21    -1     0     0   512   502  0.000000000E+00  0.000000000E+00 -1.377236616E+02  1.377236616E+02  0.000000000E+00  0.00000E+00  9.000E+00
      25     1     1     2     0     0 -1.153254457E+02 -5.667260774E+01  5.212464309E+02  5.512119235E+02  1.250000000E+02  0.00000E+00  9.000E+00
      25     1     1     2     0     0  8.048364720E+01  3.526403911E+01  7.004295603E+02  7.169014848E+02  1.250000000E+02  0.00000E+00  9.000E+00
      21     1     1     2   512   501  3.484179851E+01  2.140856862E+01 -1.108538496E+02  1.181560566E+02  4.473129043E-06  0.00000E+00  9.000E+00
#rwgt            1           1   3.4059680550297129E-002           5      135067           0
</event>
<event>
      5   9999  3.79277E-02  2.22786E+01 -1.00000E+00  1.62593E-01
      21    -1     0     0   502   501  0.000000000E+00  0.000000000E+00  4.822398610E+02  4.822398610E+02  0.000000000E+00  0.00000E+00  9.000E+00
      21    -1     0     0   501   511  0.000000000E+00  0.000000000E+00 -6.374026706E+02  6.374026706E+02  0.000000000E+00  0.00000E+00  9.000E+00
      25     1     1     2     0     0 -1.434740740E+02  8.204809994E+01 -2.448864896E+01  2.086657483E+02  1.250000000E+02  0.00000E+00  9.000E+00
      25     1     1     2     0     0  1.657438213E+02 -8.267680624E+01  3.578816923E+02  4.219132308E+02  1.250000000E+02  0.00000E+00  9.000E+00
      21     1     1     2   502   511 -2.226974738E+01  6.287062950E-01 -4.885558530E+02  4.890635525E+02  5.394796609E-06  0.00000E+00  9.000E+00
#rwgt            1           1   6.2248667267875056E-002           5      135125           0
</event>
<event>
      5   9999  3.79277E-02  1.87818E+01 -1.00000E+00  1.68653E-01
      21    -1     0     0   502   501  0.000000000E+00  0.000000000E+00  3.082553582E+02  3.082553582E+02  0.000000000E+00  0.00000E+00  9.000E+00
      21    -1     0     0   512   502  0.000000000E+00  0.000000000E+00 -1.734584335E+02  1.734584335E+02  0.000000000E+00  0.00000E+00  9.000E+00
      25     1     1     2     0     0  1.414725077E+02 -1.245779735E+02  6.799663134E+01  2.361835807E+02  1.250000000E+02  0.00000E+00  9.000E+00
      25     1     1     2     0     0 -1.410545082E+02  1.058008728E+02  6.834425668E+01  2.266851041E+02  1.250000000E+02  0.00000E+00  9.000E+00
      21     1     1     2   512   501 -4.179994544E-01  1.877710070E+01 -1.543963242E+00  1.884510697E+01  3.953724850E-07  0.00000E+00  9.000E+00
#rwgt            1           1   1.1442989054982316E-002           5      135335           0
</event>
<event>
      5   9999  3.79277E-02  6.70153E+00 -1.00000E+00  2.18264E-01
      21    -1     0     0   502   501  0.000000000E+00  0.000000000E+00  9.601146299E+01  9.601146299E+01  0.000000000E+00  0.00000E+00  9.000E+00
      21    -1     0     0   501   511  0.000000000E+00  0.000000000E+00 -6.750522252E+02  6.750522252E+02  0.000000000E+00  0.00000E+00  9.000E+00
      25     1     1     2     0     0 -2.058450412E+02  1.295463142E+01 -1.949081015E+02  3.100873611E+02  1.250000000E+02  0.00000E+00  9.000E+00
      25     1     1     2     0     0  2.123733268E+02 -1.446855354E+01 -3.644361132E+02  4.401709322E+02  1.250000000E+02  0.00000E+00  9.000E+00
      21     1     1     2   502   511 -6.528285512E+00  1.513922116E+00 -1.969654746E+01  2.080539482E+01  3.371747881E-07  0.00000E+00  9.000E+00
#rwgt            1           1   4.1390870433543406E-002           5      135574           0
</event>
<event>
      5   9999  3.79277E-02  2.23065E+01 -1.00000E+00  1.62551E-01
      21    -1     0     0   502   501  0.000000000E+00  0.000000000E+00  1.677250158E+02  1.677250158E+02  0.000000000E+00  0.00000E+00  9.000E+00
      -4    -1     0     0     0   502  0.000000000E+00  0.000000000E+00 -6.671696908E+02  6.671696908E+02  0.000000000E+00  0.00000E+00  9.000E+00
      25     1     1     2     0     0 -1.007789245E+02  1.164782384E+02  2.369116166E+01  1.997744798E+02  1.250000000E+02  0.00000E+00  9.000E+00
      25     1     1     2     0     0  1.101820389E+02 -9.625048033E+01 -1.105356074E+02  2.219174557E+02  1.250000000E+02  0.00000E+00  9.000E+00
      -4     1     1     2     0   501 -9.403114425E+00 -2.022775811E+01 -4.126002293E+02  4.132027710E+02  0.000000000E+00  0.00000E+00  9.000E+00
#rwgt            1           1   3.3827795146359155E-002           5      135922           0
</event>
<event>
      5   9999  3.79277E-02  7.02678E+01 -1.00000E+00  1.31137E-01
      21    -1     0     0   502   501  0.000000000E+00  0.000000000E+00  1.262367625E+03  1.262367625E+03  0.000000000E+00  0.00000E+00  9.000E+00
       4    -1     0     0   501     0  0.000000000E+00  0.000000000E+00 -8.991575921E+02  8.991575921E+02  0.000000000E+00  0.00000E+00  9.000E+00
      25     1     1     2     0     0  9.299226521E+01  1.780289610E+02  9.187533431E+02  9.487226032E+02  1.250000000E+02  0.00000E+00  9.000E+00
      25     1     1     2     0     0 -3.883583515E+01 -1.332557494E+02  3.005311015E+02  3.538492049E+02  1.250000000E+02  0.00000E+00  9.000E+00
       4     1     1     2   502     0 -5.415643006E+01 -4.477321156E+01 -8.560744120E+02  8.589534086E+02  1.078959322E-05  0.00000E+00  9.000E+00
#rwgt            1           1  0.24089150360283285                5      136056           0
</event>
<event>
      5   9999  3.79277E-02  6.15144E+01 -1.00000E+00  1.34127E-01
      21    -1     0     0   502   511  0.000000000E+00  0.000000000E+00  5.506288629E+02  5.506288629E+02  0.000000000E+00  0.00000E+00  9.000E+00
      21    -1     0     0   501   502  0.000000000E+00  0.000000000E+00 -1.199048993E+02  1.199048993E+02  0.000000000E+00  0.00000E+00  9.000E+00
      25     1     1     2     0     0  1.113159864E+02 -1.342282391E+02  5.858649167E+01  2.224091860E+02  1.250000000E+02  0.00000E+00  9.000E+00
      25     1     1     2     0     0 -4.986729609E+01  1.313863275E+02  2.847458407E+02  3.412540228E+02  1.250000000E+02  0.00000E+00  9.000E+00
      21     1     1     2   501   511 -6.144869027E+01  2.841911661E+00  8.739163120E+01  1.068705535E+02  9.536743164E-07  0.00000E+00  9.000E+00
#rwgt            1           1   3.8279753184186374E-002           5      136242           0
</event>
<event>
      5   9999  3.79277E-02  1.39278E+01 -1.00000E+00  1.80473E-01
      21    -1     0     0   502   501  0.000000000E+00  0.000000000E+00  8.016344005E+02  8.016344005E+02  0.000000000E+00  0.00000E+00  9.000E+00
      21    -1     0     0   501   512  0.000000000E+00  0.000000000E+00 -8.348233418E+01  8.348233418E+01  0.000000000E+00  0.00000E+00  9.000E+00
      25     1     1     2     0     0 -9.012549579E+01  6.455986763E+00  6.414869963E+02  6.597687861E+02  1.250000000E+02  0.00000E+00  9.000E+00
      25     1     1     2     0     0  1.037257960E+02 -9.458726399E+00  1.050900320E+02  1.936941483E+02  1.250000000E+02  0.00000E+00  9.000E+00
      21     1     1     2   502   512 -1.360030017E+01  3.002739635E+00 -2.842496195E+01  3.165380028E+01  4.768371582E-07  0.00000E+00  9.000E+00
#rwgt            1           1   4.7831348164649234E-002           5      136365           0
</event>
<event>
      5   9999  3.79277E-02  7.11034E+01 -1.00000E+00  1.30878E-01
      21    -1     0     0   502   501  0.000000000E+00  0.000000000E+00  2.016439398E+02  2.016439398E+02  0.000000000E+00  0.00000E+00  9.000E+00
      21    -1     0     0   501   511  0.000000000E+00  0.000000000E+00 -2.329452396E+02  2.329452396E+02  0.000000000E+00  0.00000E+00  9.000E+00
      25     1     1     2     0     0 -8.555049615E+01 -3.479565984E+01 -7.134084635E+01  1.710091860E+02  1.250000000E+02  0.00000E+00  9.000E+00
      25     1     1     2     0     0  2.486785013E+01 -2.262496863E+00  1.066114103E+02  1.661761766E+02  1.250000000E+02  0.00000E+00  9.000E+00
      21     1     1     2   502   511  6.068264603E+01  3.705815671E+01 -6.657186363E+01  9.740381684E+01  9.536743164E-07  0.00000E+00  9.000E+00
#rwgt            1           1   4.8955525494863782E-002           5      136662           0
</event>
<event>
      5   9999  3.79277E-02  5.53200E+01 -1.00000E+00  1.36616E-01
      21    -1     0     0   502   501  0.000000000E+00  0.000000000E+00  3.246464150E+02  3.246464150E+02  0.000000000E+00  0.00000E+00  9.000E+00
      21    -1     0     0   512   502  0.000000000E+00  0.000000000E+00 -4.463212649E+02  4.463212649E+02  0.000000000E+00  0.00000E+00  9.000E+00
      25     1     1     2     0     0  5.858211772E+01 -1.208508856E+02  2.618763331E+02  3.197514893E+02  1.250000000E+02  0.00000E+00  9.000E+00
      25     1     1     2     0     0 -8.053106488E+01  7.007148781E+01 -3.495795299E+02  3.862979595E+02  1.250000000E+02  0.00000E+00  9.000E+00
      21     1     1     2   512   501  2.194894715E+01  5.077939774E+01 -3.397165318E+01  6.491823115E+01  0.000000000E+00  0.00000E+00  9.000E+00
#rwgt            1           1   4.0013805544271669E-002           5      136770           0
</event>
<event>
      5   9999  3.79277E-02  8.55539E+01 -1.00000E+00  1.26954E-01
      21    -1     0     0   502   501  0.000000000E+00  0.000000000E+00  6.148223792E+02  6.148223792E+02  0.000000000E+00  0.00000E+00  9.000E+00
       1    -1     0     0   501     0  0.000000000E+00  0.000000000E+00 -2.621665774E+02  2.621665774E+02  0.000000000E+00  0.00000E+00  9.000E+00
      25     1     1     2     0     0  1.029997246E+02  1.887568760E+02  1.404584823E+02  2.856425856E+02  1.250000000E+02  0.00000E+00  9.000E+00
      25     1     1     2     0     0 -3.136317531E+01 -2.355294684E+02  3.426718134E+02  4.353237312E+02  1.250000000E+02  0.00000E+00  9.000E+00
       1     1     1     2   502     0 -7.163654924E+01  4.677259243E+01 -1.304744938E+02  1.560226398E+02  1.907348633E-06  0.00000E+00  9.000E+00
#rwgt            1           1   7.0282342120902633E-002           5      137056           0
</event>
<event>
      5   9999  3.79277E-02  5.35095E+01 -1.00000E+00  1.37415E-01
      21    -1     0     0   502   501  0.000000000E+00  0.000000000E+00  1.140791131E+02  1.140791131E+02  0.000000000E+00  0.00000E+00  9.000E+00
      21    -1     0     0   501   511  0.000000000E+00  0.000000000E+00 -4.362289899E+02  4.362289899E+02  0.000000000E+00  0.00000E+00  9.000E+00
      25     1     1     2     0     0  1.170643220E+02 -7.448181916E+01 -5.506058612E+01  1.947004495E+02  1.250000000E+02  0.00000E+00  9.000E+00
      25     1     1     2     0     0 -1.100877423E+02  2.142911931E+01 -1.433725321E+02  2.208148571E+02  1.250000000E+02  0.00000E+00  9.000E+00
      21     1     1     2   502   511 -6.976579687E+00  5.305269985E+01 -1.237167585E+02  1.347927964E+02  1.907348633E-06  0.00000E+00  9.000E+00
#rwgt            1           1   4.3826454913433496E-002           5      137162           0
</event>
<event>
      5   9999  3.79277E-02  3.77287E+01 -1.00000E+00  1.46432E-01
      21    -1     0     0   502   512  0.000000000E+00  0.000000000E+00  1.679309537E+02  1.679309537E+02  0.000000000E+00  0.00000E+00  9.000E+00
      21    -1     0     0   501   502  0.000000000E+00  0.000000000E+00 -3.560561394E+02  3.560561394E+02  0.000000000E+00  0.00000E+00  9.000E+00
      25     1     1     2     0     0 -6.176931059E+01  7.584065935E+01 -2.521300422E+02  2.979292056E+02  1.250000000E+02  0.00000E+00  9.000E+00
      25     1     1     2     0     0  5.508610445E+01 -1.129727352E+02  4.125443987E+01  1.820006775E+02  1.250000000E+02  0.00000E+00  9.000E+00
      21     1     1     2   501   512  6.683206140E+00  3.713207587E+01  2.275041666E+01  4.405721009E+01  3.371747881E-07  0.00000E+00  9.000E+00
#rwgt            1           1   2.5743312213942250E-002           5      137295           0
</event>
<event>
      5   9999  3.79277E-02  7.23136E+01 -1.00000E+00  1.30509E-01
      21    -1     0     0   502   511  0.000000000E+00  0.000000000E+00  4.277964058E+02  4.277964058E+02  0.000000000E+00  0.00000E+00  9.000E+00
      21    -1     0     0   501   502  0.000000000E+00  0.000000000E+00 -5.082624623E+02  5.082624623E+02  0.000000000E+00  0.00000E+00  9.000E+00
      25     1     1     2     0     0  1.301147919E+02 -1.640090354E+02 -5.154558627E+01  2.492203247E+02  1.250000000E+02  0.00000E+00  9.000E+00
      25     1     1     2     0     0 -6.412568094E+01  1.935842247E+02 -3.128692833E+02  3.938262859E+02  1.250000000E+02  0.00000E+00  9.000E+00
      21     1     1     2   501   511 -6.598911101E+01 -2.957518936E+01  2.839488131E+02  2.930122575E+02  3.814697266E-06  0.00000E+00  9.000E+00
#rwgt            1           1   4.3584748833498083E-002           5      137565           0
</event>
<event>
      5   9999  3.79277E-02  5.55927E+01 -1.00000E+00  1.36498E-01
      21    -1     0     0   502   501  0.000000000E+00  0.000000000E+00  9.747576643E+02  9.747576643E+02  0.000000000E+00  0.00000E+00  9.000E+00
      21    -1     0     0   501   512  0.000000000E+00  0.000000000E+00 -1.826690096E+03  1.826690096E+03  0.000000000E+00  0.00000E+00  9.000E+00
      25     1     1     2     0     0  5.090882144E+01 -1.213283898E+02  1.118034001E+02  2.131602368E+02  1.250000000E+02  0.00000E+00  9.000E+00
      25     1     1     2     0     0 -9.692800491E+00  8.402175433E+01  8.048245731E+02  8.188535883E+02  1.250000000E+02  0.00000E+00  9.000E+00
      21     1     1     2   502   512 -4.121602095E+01  3.730663547E+01 -1.768560405E+03  1.769433935E+03  2.157918644E-05  0.00000E+00  9.000E+00
#rwgt            1           1   4.8954179228042308E-002           5      137707           0
</event>
<event>
      5   9999  3.79277E-02  3.61186E+01 -1.00000E+00  1.47644E-01
       2    -1     0     0   502     0  0.000000000E+00  0.000000000E+00  1.708583788E+03  1.708583788E+03  0.000000000E+00  0.00000E+00  9.000E+00
      21    -1     0     0   501   502  0.000000000E+00  0.000000000E+00 -7.617555904E+01  7.617555904E+01  0.000000000E+00  0.00000E+00  9.000E+00
      25     1     1     2     0     0 -9.699294261E+01 -1.117858336E+02  4.745831149E+02  5.125990992E+02  1.250000000E+02  0.00000E+00  9.000E+00
      25     1     1     2     0     0  8.503543152E+01  1.458676618E+02  1.372366253E+02  2.509328410E+02  1.250000000E+02  0.00000E+00  9.000E+00
       2     1     1     2   501     0  1.195751109E+01 -3.408182820E+01  1.020588489E+03  1.021227407E+03  1.525878906E-05  0.00000E+00  9.000E+00
#rwgt            1           1   2.8194803235082645E-002           5      137827           0
</event>
<event>
      5   9999 -3.79277E-02  1.32889E+01 -1.00000E+00  1.82487E-01
      21    -1     0     0   502   501  0.000000000E+00  0.000000000E+00  1.444695864E+02  1.444695864E+02  0.000000000E+00  0.00000E+00  9.000E+00
      21    -1     0     0   501   511  0.000000000E+00  0.000000000E+00 -5.482106999E+02  5.482106999E+02  0.000000000E+00  0.00000E+00  9.000E+00
      25     1     1     2     0     0 -1.569527141E+01  1.566338635E+02 -5.379597071E+00  2.010831888E+02  1.250000000E+02  0.00000E+00  9.000E+00
      25     1     1     2     0     0  2.847982433E+01 -1.530076107E+02 -1.681479670E+02  2.610003221E+02  1.250000000E+02  0.00000E+00  9.000E+00
      21     1     1     2   502   511 -1.278455292E+01 -3.626252798E+00 -2.302135494E+02  2.305967754E+02  2.697398305E-06  0.00000E+00  9.000E+00
#rwgt            1           1 -0.14656844233702018                5      138054           0
</event>
<event>
      5   9999  3.79277E-02  1.17887E+01 -1.00000E+00  1.87843E-01
      21    -1     0     0   502   512  0.000000000E+00  0.000000000E+00  1.718503320E+02  1.718503320E+02  0.000000000E+00  0.00000E+00  9.000E+00
      21    -1     0     0   501   502  0.000000000E+00  0.000000000E+00 -4.403227636E+02  4.403227636E+02  0.000000000E+00  0.00000E+00  9.000E+00
      25     1     1     2     0     0  3.123341791E+01  1.515112873E+02 -3.304650086E+02  3.856984813E+02  1.250000000E+02  0.00000E+00  9.000E+00
      25     1     1     2     0     0 -1.960628146E+01 -1.534563843E+02  4.202076408E+01  2.032830853E+02  1.250000000E+02  0.00000E+00  9.000E+00
      21     1     1     2   501   512 -1.162713645E+01  1.945096975E+00  1.997181297E+01  2.319152900E+01  3.371747881E-07  0.00000E+00  9.000E+00
#rwgt            1           1   3.7363131527088721E-002           5      138241           0
</event>
<event>
      5   9999  3.79277E-02  6.62751E+01 -1.00000E+00  1.32435E-01
      21    -1     0     0   502   501  0.000000000E+00  0.000000000E+00  1.123792310E+02  1.123792310E+02  0.000000000E+00  0.00000E+00  9.000E+00
      21    -1     0     0   501   511  0.000000000E+00  0.000000000E+00 -4.998158807E+02  4.998158807E+02  0.000000000E+00  0.00000E+00  9.000E+00
      25     1     1     2     0     0  1.331085198E+02 -1.056151311E+01 -3.387265122E+01  1.860155372E+02  1.250000000E+02  0.00000E+00  9.000E+00
      25     1     1     2     0     0 -9.326187398E+01  6.352032090E+01 -2.834544614E+02  3.297029572E+02  1.250000000E+02  0.00000E+00  9.000E+00
      21     1     1     2   502   511 -3.984664579E+01 -5.295880779E+01 -7.010953707E+01  9.647661733E+01  9.536743164E-07  0.00000E+00  9.000E+00
#rwgt            1           1   4.0221274956353081E-002           5      138462           0
</event>
<event>
      5   9999  3.79277E-02  1.39769E+01 -1.00000E+00  1.80323E-01
      21    -1     0     0   512   501  0.000000000E+00  0.000000000E+00  1.984485231E+02  1.984485231E+02  0.000000000E+00  0.00000E+00  9.000E+00
      21    -1     0     0   501   502  0.000000000E+00  0.000000000E+00 -2.154479700E+02  2.154479700E+02  0.000000000E+00  0.00000E+00  9.000E+00
      25     1     1     2     0     0  9.943766986E+01 -9.528820135E+01 -5.802690254E+01  1.948327819E+02  1.250000000E+02  0.00000E+00  9.000E+00
      25     1     1     2     0     0 -1.033786198E+02  8.187837728E+01  6.505941588E+00  1.818200621E+02  1.250000000E+02  0.00000E+00  9.000E+00
      21     1     1     2   512   502  3.940949967E+00  1.340982407E+01  3.452151398E+01  3.724364906E+01  6.743495762E-07  0.00000E+00  9.000E+00
#rwgt            1           1   3.4648129016174027E-002           5      138555           0
</event>
<event>
      5   9999  3.79277E-02  1.48324E+01 -1.00000E+00  1.77845E-01
      21    -1     0     0   502   511  0.000000000E+00  0.000000000E+00  7.498771196E+02  7.498771196E+02  0.000000000E+00  0.00000E+00  9.000E+00
      21    -1     0     0   501   502  0.000000000E+00  0.000000000E+00 -1.905376804E+02  1.905376804E+02  0.000000000E+00  0.00000E+00  9.000E+00
      25     1     1     2     0     0 -1.577588471E+02  6.843316691E+00 -4.112102773E+01  2.055495652E+02  1.250000000E+02  0.00000E+00  9.000E+00
      25     1     1     2     0     0  1.564269536E+02 -2.161580554E+01  8.403714776E+01  2.182289556E+02  1.250000000E+02  0.00000E+00  9.000E+00
      21     1     1     2   501   511  1.331893501E+00  1.477248885E+01  5.164233192E+02  5.166362792E+02  0.000000000E+00  0.00000E+00  9.000E+00
#rwgt            1           1   3.4263644731128765E-002           5      138727           0
</event>
<event>
      5   9999  3.79277E-02  6.89743E+01 -1.00000E+00  1.31546E-01
      21    -1     0     0   502   501  0.000000000E+00  0.000000000E+00  5.133410864E+01  5.133410864E+01  0.000000000E+00  0.00000E+00  9.000E+00
       2    -1     0     0   501     0  0.000000000E+00  0.000000000E+00 -2.146931243E+03  2.146931243E+03  0.000000000E+00  0.00000E+00  9.000E+00
      25     1     1     2     0     0  5.267313712E+00 -6.785493510E+01 -7.627458566E+02  7.759112569E+02  1.250000000E+02  0.00000E+00  9.000E+00
      25     1     1     2     0     0 -1.877978746E+01  2.171478981E-01 -4.731424748E+01  1.349680169E+02  1.250000000E+02  0.00000E+00  9.000E+00
       2     1     1     2   502     0  1.351247375E+01  6.763778721E+01 -1.285537031E+03  1.287386078E+03  2.157918644E-05  0.00000E+00  9.000E+00
#rwgt            1           1   4.9708549256630631E-002           5      138997           0
</event>
<event>
      5   9999  3.79277E-02  2.51146E+01 -1.00000E+00  1.58602E-01
      21    -1     0     0   502   501  0.000000000E+00  0.000000000E+00  1.037167570E+03  1.037167570E+03  0.000000000E+00  0.00000E+00  9.000E+00
      21    -1     0     0   501   511  0.000000000E+00  0.000000000E+00 -3.110028262E+01  3.110028262E+01  0.000000000E+00  0.00000E+00  9.000E+00
      25     1     1     2     0     0  8.988776022E+01 -6.439399126E+00  3.509181037E+02  3.832620393E+02  1.250000000E+02  0.00000E+00  9.000E+00
      25     1     1     2     0     0 -1.015255687E+02 -1.581603869E+01  6.257856198E+02  6.463669470E+02  1.250000000E+02  0.00000E+00  9.000E+00
      21     1     1     2   502   511  1.163780849E+01  2.225543782E+01  2.936356349E+01  3.863886592E+01  3.371747881E-07  0.00000E+00  9.000E+00
#rwgt            1           1   3.4175375640058028E-002           5      139090           0
</event>
<event>
      5   9999  3.79277E-02  5.54284E+01 -1.00000E+00  1.36569E-01
      21    -1     0     0   502   512  0.000000000E+00  0.000000000E+00  1.270774840E+02  1.270774840E+02  0.000000000E+00  0.00000E+00  9.000E+00
      21    -1     0     0   501   502  0.000000000E+00  0.000000000E+00 -1.052442666E+03  1.052442666E+03  0.000000000E+00  0.00000E+00  9.000E+00
      25     1     1     2     0     0 -1.344301263E+02 -3.047936250E+02 -4.203973348E+02  5.507536035E+02  1.250000000E+02  0.00000E+00  9.000E+00
      25     1     1     2     0     0  1.113489349E+02  2.543994806E+02 -4.788674012E+02  5.675003691E+02  1.250000000E+02  0.00000E+00  9.000E+00
      21     1     1     2   501   512  2.308119135E+01  5.039414437E+01 -2.610044574E+01  6.126617704E+01  1.469710828E-06  0.00000E+00  9.000E+00
#rwgt            1           1   3.7886955598616989E-002           5      139219           0
</event>
<event>
      5   9999  3.79277E-02  1.52289E+01 -1.00000E+00  1.76766E-01
      21    -1     0     0   502   511  0.000000000E+00  0.000000000E+00  1.794709765E+02  1.794709765E+02  0.000000000E+00  0.00000E+00  9.000E+00
      21    -1     0     0   501   502  0.000000000E+00  0.000000000E+00 -2.077688964E+02  2.077688964E+02  0.000000000E+00  0.00000E+00  9.000E+00
      25     1     1     2     0     0 -1.404154544E+02  8.227742087E+00 -3.596836431E+01  1.915800585E+02  1.250000000E+02  0.00000E+00  9.000E+00
      25     1     1     2     0     0  1.263935114E+02 -2.285957191E+00 -1.683774318E+00  1.777874586E+02  1.250000000E+02  0.00000E+00  9.000E+00
      21     1     1     2   501   511  1.402194297E+01 -5.941784896E+00  9.354218721E+00  1.787235576E+01  2.665600750E-07  0.00000E+00  9.000E+00
#rwgt            1           1  0.30132280362774772                5      139369           0
</event>
<event>
      5   9999  3.79277E-02  6.72167E+00 -1.00000E+00  2.18075E-01
      21    -1     0     0   502   501  0.000000000E+00  0.000000000E+00  6.620707350E+02  6.620707350E+02  0.000000000E+00  0.00000E+00  9.000E+00
      21    -1     0     0   512   502  0.000000000E+00  0.000000000E+00 -1.625447576E+02  1.625447576E+02  0.000000000E+00  0.00000E+00  9.000E+00
      25     1     1     2     0     0  1.096836172E+02  4.819173022E+01  5.944987150E+02  6.191984019E+02  1.250000000E+02  0.00000E+00  9.000E+00
      25     1     1     2     0     0 -1.111579267E+02 -4.163374200E+01 -9.772583910E+01  1.981534576E+02  1.250000000E+02  0.00000E+00  9.000E+00
      21     1     1     2   512   501  1.474309460E+00 -6.557988229E+00  2.753101436E+00  7.263633079E+00  1.332800375E-07  0.00000E+00  9.000E+00
#rwgt            1           1   4.9308804444694099E-002           5      139588           0
</event>
<event>
      5   9999  3.79277E-02  1.25496E+02 -1.00000E+00  1.19548E-01
      21    -1     0     0   511   501  0.000000000E+00  0.000000000E+00  1.252173603E+02  1.252173603E+02  0.000000000E+00  0.00000E+00  9.000E+00
      21    -1     0     0   501   502  0.000000000E+00  0.000000000E+00 -1.413485580E+03  1.413485580E+03  0.000000000E+00  0.00000E+00  9.000E+00
      25     1     1     2     0     0 -9.325197329E+01 -1.444006334E+02 -5.840736776E+02  6.215420616E+02  1.250000000E+02  0.00000E+00  9.000E+00
      25     1     1     2     0     0  2.148812430E+02  1.753147539E+02 -7.283856689E+02  7.893540994E+02  1.250000000E+02  0.00000E+00  9.000E+00
      21     1     1     2   511   502 -1.216292697E+02 -3.091412050E+01  2.419112730E+01  1.278067789E+02  3.354846783E-06  0.00000E+00  9.000E+00
#rwgt            1           1   3.9428736525802081E-002           5      140107           0
</event>
<event>
      5   9999  3.79277E-02  3.10260E+01 -1.00000E+00  1.52032E-01
      21    -1     0     0   502   501  0.000000000E+00  0.000000000E+00  2.726151932E+02  2.726151932E+02  0.000000000E+00  0.00000E+00  9.000E+00
      21    -1     0     0   501   512  0.000000000E+00  0.000000000E+00 -1.762909009E+02  1.762909009E+02  0.000000000E+00  0.00000E+00  9.000E+00
      25     1     1     2     0     0  7.264824433E+01 -7.746580082E+01  3.714706604E+01  1.681773535E+02  1.250000000E+02  0.00000E+00  9.000E+00
      25     1     1     2     0     0 -8.598191104E+01  1.054805690E+02  1.144423332E+02  2.173501486E+02  1.250000000E+02  0.00000E+00  9.000E+00
      21     1     1     2   502   512  1.333366671E+01 -2.801476817E+01 -5.526510683E+01  6.337859210E+01  9.536743164E-07  0.00000E+00  9.000E+00
#rwgt            1           1   3.3719115709632284E-002           5      140274           0
</event>
<event>
      5   9999  3.79277E-02  6.59271E+00 -1.00000E+00  2.19300E-01
      21    -1     0     0   502   511  0.000000000E+00  0.000000000E+00  9.287885095E+02  9.287885095E+02  0.000000000E+00  0.00000E+00  9.000E+00
      21    -1     0     0   501   502  0.000000000E+00  0.000000000E+00 -6.855487516E+02  6.855487516E+02  0.000000000E+00  0.00000E+00  9.000E+00
      25     1     1     2     0     0  1.580954644E+02  6.010160308E+01 -3.978094452E+02  4.499819255E+02  1.250000000E+02  0.00000E+00  9.000E+00
      25     1     1     2     0     0 -1.518713779E+02 -5.792799891E+01 -2.214655209E+02  3.018154161E+02  1.250000000E+02  0.00000E+00  9.000E+00
      21     1     1     2   501   511 -6.224086453E+00 -2.173604165E+00  8.625147240E+02  8.625399196E+02  1.078959322E-05  0.00000E+00  9.000E+00
#rwgt            1           1   3.8663551495827946E-002           5      140391           0
</event>
<event>
      5   9999  3.79277E-02  2.78108E+01 -1.00000E+00  1.55361E-01
      21    -1     0     0   502   512  0.000000000E+00  0.000000000E+00  3.445741064E+02  3.445741064E+02  0.000000000E+00  0.00000E+00  9.000E+00
      21    -1     0     0   501   502  0.000000000E+00  0.000000000E+00 -1.154469427E+02  1.154469427E+02  0.000000000E+00  0.00000E+00  9.000E+00
      25     1     1     2     0     0  2.363178573E+01 -9.796462607E+01  4.605938694E+01  1.670389068E+02  1.250000000E+02  0.00000E+00  9.000E+00
      25     1     1     2     0     0 -3.624803975E+01  1.227490997E+02  9.907433166E+01  2.045042421E+02  1.250000000E+02  0.00000E+00  9.000E+00
      21     1     1     2   501   512  1.261625402E+01 -2.478447359E+01  8.399344516E+01  8.847790022E+01  1.651812370E-06  0.00000E+00  9.000E+00
#rwgt            1           1   3.4127326852245635E-002           5      140705           0
</event>
<event>
      5   9999  3.79277E-02  2.15168E+01 -1.00000E+00  1.63792E-01
      21    -1     0     0   502   501  0.000000000E+00  0.000000000E+00  1.381325335E+01  1.381325335E+01  0.000000000E+00  0.00000E+00  9.000E+00
      21    -1     0     0   511   502  0.000000000E+00  0.000000000E+00 -2.070897732E+03  2.070897732E+03  0.000000000E+00  0.00000E+00  9.000E+00
      25     1     1     2     0     0 -6.034957011E+00 -9.983287487E+01 -1.049589076E+03  1.061727485E+03  1.250000000E+02  0.00000E+00  9.000E+00
      25     1     1     2     0     0  2.468727540E+01  8.910619215E+01 -8.628602962E+02  8.767566742E+02  1.250000000E+02  0.00000E+00  9.000E+00
      21     1     1     2   511   501 -1.865231839E+01  1.072668273E+01 -1.446351065E+02  1.462268263E+02  1.907348633E-06  0.00000E+00  9.000E+00
#rwgt            1           1  0.10148864158681271                5      140883           0
</event>
<event>
      5   9999  3.79277E-02  1.65803E+01 -1.00000E+00  1.73381E-01
      21    -1     0     0   502   501  0.000000000E+00  0.000000000E+00  4.300371212E+02  4.300371212E+02  0.000000000E+00  0.00000E+00  9.000E+00
      21    -1     0     0   501   512  0.000000000E+00  0.000000000E+00 -1.478706120E+02  1.478706120E+02  0.000000000E+00  0.00000E+00  9.000E+00
      25     1     1     2     0     0 -1.162742883E+02 -1.056415121E+02  3.252148578E+01  2.033776936E+02  1.250000000E+02  0.00000E+00  9.000E+00
      25     1     1     2     0     0  1.042875021E+02  1.170968302E+02  2.773451701E+02  3.422468321E+02  1.250000000E+02  0.00000E+00  9.000E+00
      21     1     1     2   502   512  1.198678623E+01 -1.145531807E+01 -2.770014672E+01  3.228320747E+01  6.743495762E-07  0.00000E+00  9.000E+00
#rwgt            1           1   4.2200861122842839E-002           5      141042           0
</event>
<event>
      5   9999  3.79277E-02  4.08784E+01 -1.00000E+00  1.44257E-01
      21    -1     0     0   511   501  0.000000000E+00  0.000000000E+00  7.069654695E+02  7.069654695E+02  0.000000000E+00  0.00000E+00  9.000E+00
      21    -1     0     0   501   502  0.000000000E+00  0.000000000E+00 -7.269315532E+01  7.269315532E+01  0.000000000E+00  0.00000E+00  9.000E+00
      25     1     1     2     0     0 -1.300696236E+02 -6.467677692E+01  2.714804989E+02  3.323068669E+02  1.250000000E+02  0.00000E+00  9.000E+00
      25     1     1     2     0     0  1.377852831E+02  1.048204569E+02  2.582213299E+02  3.350751672E+02  1.250000000E+02  0.00000E+00  9.000E+00
      21     1     1     2   511   502 -7.715659488E+00 -4.014367998E+01  1.045704853E+02  1.122765908E+02  0.000000000E+00  0.00000E+00  9.000E+00
#rwgt            1           1   4.4731391363783173E-002           5      141246           0
</event>
<event>
      5   9999  3.79277E-02  1.32094E+02 -1.00000E+00  1.18624E-01
      21    -1     0     0   512   501  0.000000000E+00  0.000000000E+00  4.382735122E+02  4.382735122E+02  0.000000000E+00  0.00000E+00  9.000E+00
      21    -1     0     0   501   502  0.000000000E+00  0.000000000E+00 -1.964946800E+02  1.964946800E+02  0.000000000E+00  0.00000E+00  9.000E+00
      25     1     1     2     0     0 -4.407874510E+01  1.137420619E+02  1.342435409E+02  2.202873594E+02  1.250000000E+02  0.00000E+00  9.000E+00
      25     1     1     2     0     0  1.749112460E+02 -1.319572633E+02  1.403416625E+01  2.526432685E+02  1.250000000E+02  0.00000E+00  9.000E+00
      21     1     1     2   512   502 -1.308325009E+02  1.821520145E+01  9.350112505E+01  1.618375643E+02  1.348699152E-06  0.00000E+00  9.000E+00
#rwgt            1           1   3.9876397541392834E-002           5      141482           0
</event>
<event>
      5   9999  3.79277E-02  2.61397E+01 -1.00000E+00  1.57314E-01
      21    -1     0     0   511   501  0.000000000E+00  0.000000000E+00  6.245759842E+02  6.245759842E+02  0.000000000E+00  0.00000E+00  9.000E+00
      21    -1     0     0   501   502  0.000000000E+00  0.000000000E+00 -7.206547807E+01  7.206547807E+01  0.000000000E+00  0.00000E+00  9.000E+00
      25     1     1     2     0     0  1.067142757E+02 -2.685309618E+01  7.002469236E+01  1.806584705E+02  1.250000000E+02  0.00000E+00  9.000E+00
      25     1     1     2     0     0 -8.492098518E+01  4.128692524E+01  4.188771820E+02  4.472127878E+02  1.250000000E+02  0.00000E+00  9.000E+00
      21     1     1     2   511   502 -2.179329049E+01 -1.443382906E+01  6.360863173E+01  6.877020403E+01  6.743495762E-07  0.00000E+00  9.000E+00
#rwgt            1           1   4.6242367437954256E-002           5      141591           0
</event>
<event>
      5   9999  3.79277E-02  8.66638E+01 -1.00000E+00  1.26690E-01
      21    -1     0     0   502   501  0.000000000E+00  0.000000000E+00  2.010533067E+02  2.010533067E+02  0.000000000E+00  0.00000E+00  9.000E+00
      21    -1     0     0   512   502  0.000000000E+00  0.000000000E+00 -4.923755994E+02  4.923755994E+02  0.000000000E+00  0.00000E+00  9.000E+00
      25     1     1     2     0     0  1.640034482E+02 -1.431223829E+02  3.665333138E+01  2.536722575E+02  1.250000000E+02  0.00000E+00  9.000E+00
      25     1     1     2     0     0 -7.734049983E+01  1.435031410E+02 -2.149069292E+02  2.972956316E+02  1.250000000E+02  0.00000E+00  9.000E+00
      21     1     1     2   512   501 -8.666294840E+01 -3.807580298E-01 -1.130686949E+02  1.424610170E+02  1.907348633E-06  0.00000E+00  9.000E+00
#rwgt            1           1   3.8085246858034959E-002           5      141853           0
</event>
<event>
      5   9999  3.79277E-02  2.92720E+01 -1.00000E+00  1.53785E-01
      21    -1     0     0   502   501  0.000000000E+00  0.000000000E+00  3.457798178E+02  3.457798178E+02  0.000000000E+00  0.00000E+00  9.000E+00
      21    -1     0     0   511   502  0.000000000E+00  0.000000000E+00 -2.342765529E+02  2.342765529E+02  0.000000000E+00  0.00000E+00  9.000E+00
      25     1     1     2     0     0  8.549932110E+01 -5.422188730E+01  1.108048345E+02  1.953275667E+02  1.250000000E+02  0.00000E+00  9.000E+00
      25     1     1     2     0     0 -1.031382554E+02  3.086132951E+01  1.557869862E+02  2.269019754E+02  1.250000000E+02  0.00000E+00  9.000E+00
      21     1     1     2   511   501  1.763893431E+01  2.336055779E+01 -1.550885558E+02  1.578268285E+02  0.000000000E+00  0.00000E+00  9.000E+00
#rwgt            1           1   3.2578369915836715E-002           5      141959           0
</event>
<event>
      5   9999  3.79277E-02  4.10861E+01 -1.00000E+00  1.44122E-01
      21    -1     0     0   512   501  0.000000000E+00  0.000000000E+00  1.049604909E+03  1.049604909E+03  0.000000000E+00  0.00000E+00  9.000E+00
      21    -1     0     0   501   502  0.000000000E+00  0.000000000E+00 -9.108299172E+01  9.108299172E+01  0.000000000E+00  0.00000E+00  9.000E+00
      25     1     1     2     0     0 -4.634045483E+01  3.368056421E+01 -1.974031797E+01  1.389118365E+02  1.250000000E+02  0.00000E+00  9.000E+00
      25     1     1     2     0     0  1.502240446E+01 -6.027462607E+01  4.324379382E+02  4.544076073E+02  1.250000000E+02  0.00000E+00  9.000E+00
      21     1     1     2   512   502  3.131805037E+01  2.659406186E+01  5.458242974E+02  5.473684573E+02  1.321449896E-05  0.00000E+00  9.000E+00
#rwgt            1           1   3.9347136618347392E-002           5      142095           0
</event>
<event>
      5   9999  3.79277E-02  4.15918E+00 -1.00000E+00  2.59540E-01
      21    -1     0     0   502   501  0.000000000E+00  0.000000000E+00  2.360447389E+02  2.360447389E+02  0.000000000E+00  0.00000E+00  9.000E+00
       1    -1     0     0   501     0  0.000000000E+00  0.000000000E+00 -2.570492583E+03  2.570492583E+03  0.000000000E+00  0.00000E+00  9.000E+00
      25     1     1     2     0     0  1.993328139E+01  1.662269830E+02 -1.343364204E+02  2.483948861E+02  1.250000000E+02  0.00000E+00  9.000E+00
      25     1     1     2     0     0 -2.079379791E+01 -1.702961742E+02  1.160880299E+02  2.419392479E+02  1.250000000E+02  0.00000E+00  9.000E+00
       1     1     1     2   502     0  8.605165183E-01  4.069191260E+00 -2.316199453E+03  2.316203188E+03  0.000000000E+00  0.00000E+00  9.000E+00
#rwgt            1           1   3.8088809456708402E-002           5      142277           0
</event>
<event>
      5   9999  3.79277E-02  2.89678E+01 -1.00000E+00  1.54104E-01
      21    -1     0     0   502   501  0.000000000E+00  0.000000000E+00  2.984918446E+03  2.984918446E+03  0.000000000E+00  0.00000E+00  9.000E+00
      21    -1     0     0   511   502  0.000000000E+00  0.000000000E+00 -1.893308445E+01  1.893308445E+01  0.000000000E+00  0.00000E+00  9.000E+00
      25     1     1     2     0     0  6.626203210E+01  1.318353479E+02  1.527755713E+03  1.539946017E+03  1.250000000E+02  0.00000E+00  9.000E+00
      25     1     1     2     0     0 -6.694132302E+01 -1.607951679E+02  1.397938177E+03  1.414281575E+03  1.250000000E+02  0.00000E+00  9.000E+00
      21     1     1     2   511   501  6.792909113E-01  2.895981998E+01  4.029147143E+01  4.962393858E+01  4.768371582E-07  0.00000E+00  9.000E+00
#rwgt            1           1   3.6252572356106239E-002           5      142613           0
</event>
<event>
      5   9999  3.79277E-02  2.83076E+01 -1.00000E+00  1.54812E-01
      21    -1     0     0   512   501  0.000000000E+00  0.000000000E+00  3.697470491E+02  3.697470491E+02  0.000000000E+00  0.00000E+00  9.000E+00
      21    -1     0     0   501   502  0.000000000E+00  0.000000000E+00 -1.114032288E+02  1.114032288E+02  0.000000000E+00  0.00000E+00  9.000E+00
      25     1     1     2     0     0 -8.195541765E+01  9.657632543E+01  1.120481069E+02  2.102937360E+02  1.250000000E+02  0.00000E+00  9.000E+00
      25     1     1     2     0     0  1.033334760E+02 -1.151316217E+02  1.204295245E+02  2.325110061E+02  1.250000000E+02  0.00000E+00  9.000E+00
      21     1     1     2   512   502 -2.137805830E+01  1.855529628E+01  2.586618882E+01  3.834553586E+01  5.840038640E-07  0.00000E+00  9.000E+00
#rwgt            1           1   3.8757563043098242E-002           5      142724           0
</event>
<event>
      5   9999  3.79277E-02  3.72924E+01 -1.00000E+00  1.46754E-01
      21    -1     0     0   511   501  0.000000000E+00  0.000000000E+00  2.288633145E+02  2.288633145E+02  0.000000000E+00  0.00000E+00  9.000E+00
      21    -1     0     0   501   502  0.000000000E+00  0.000000000E+00 -2.688864877E+02  2.688864877E+02  0.000000000E+00  0.00000E+00  9.000E+00
      25     1     1     2     0     0  8.543570832E+01  1.535920174E+02  8.372118850E+01  2.313525566E+02  1.250000000E+02  0.00000E+00  9.000E+00
      25     1     1     2     0     0 -8.993411033E+01 -1.165718954E+02 -1.232283719E+02  2.291012498E+02  1.250000000E+02  0.00000E+00  9.000E+00
      21     1     1     2   511   502  4.498402012E+00 -3.702012198E+01 -5.159897590E-01  3.729599573E+01  7.624022984E-07  0.00000E+00  9.000E+00
#rwgt            1           1   4.4279326177258320E-002           5      142862           0
</event>
<event>
      5   9999  3.79277E-02  6.56710E+00 -1.00000E+00  2.19548E-01
      21    -1     0     0   502   501  0.000000000E+00  0.000000000E+00  1.752054928E+02  1.752054928E+02  0.000000000E+00  0.00000E+00  9.000E+00
      21    -1     0     0   512   502  0.000000000E+00  0.000000000E+00 -6.007541475E+02  6.007541475E+02  0.000000000E+00  0.00000E+00  9.000E+00
      25     1     1     2     0     0  5.444753463E+01 -1.707559314E+02  6.822553884E+01  2.289144956E+02  1.250000000E+02  0.00000E+00  9.000E+00
      25     1     1     2     0     0 -6.085333897E+01  1.722024498E+02 -4.365595925E+02  4.894548910E+02  1.250000000E+02  0.00000E+00  9.000E+00
      21     1     1     2   512   501  6.405804339E+00 -1.446518356E+00 -5.721460107E+01  5.759025369E+01  6.743495762E-07  0.00000E+00  9.000E+00
#rwgt            1           1   3.6069051301385859E-002           5      142988           0
</event>
<event>
      5   9999  3.79277E-02  9.11090E+01 -1.00000E+00  1.25674E-01
      21    -1     0     0   511   501  0.000000000E+00  0.000000000E+00  4.594175269E+02  4.594175269E+02  0.000000000E+00  0.00000E+00  9.000E+00
      21    -1     0     0   501   502  0.000000000E+00  0.000000000E+00 -1.148742132E+03  1.148742132E+03  0.000000000E+00  0.00000E+00  9.000E+00
      25     1     1     2     0     0  2.444233545E+02 -7.690687718E+01 -8.096552015E+02  8.583845229E+02  1.250000000E+02  0.00000E+00  9.000E+00
      25     1     1     2     0     0 -2.290887641E+02  1.667160966E+02 -2.313058413E+02  3.865272448E+02  1.250000000E+02  0.00000E+00  9.000E+00
      21     1     1     2   511   502 -1.533459037E+01 -8.980921945E+01  3.516364381E+02  3.632478908E+02  3.814697266E-06  0.00000E+00  9.000E+00
#rwgt            1           1  0.32225728117682234                5      143360           0
</event>
<event>
      5   9999  3.79277E-02  1.09826E+01 -1.00000E+00  1.91166E-01
      21    -1     0     0   502   501  0.000000000E+00  0.000000000E+00  4.473523802E+03  4.473523802E+03  0.000000000E+00  0.00000E+00  9.000E+00
      21    -1     0     0   512   502  0.000000000E+00  0.000000000E+00 -1.116209439E+03  1.116209439E+03  0.000000000E+00  0.00000E+00  9.000E+00
      25     1     1     2     0     0  5.540038552E+01 -8.335939118E+01  3.095585091E+03  3.099724189E+03  1.250000000E+02  0.00000E+00  9.000E+00
      25     1     1     2     0     0 -6.544045395E+01  8.781079895E+01  1.370823558E+03  1.380860390E+03  1.250000000E+02  0.00000E+00  9.000E+00
      21     1     1     2   512   501  1.004006843E+01 -4.451407769E+00 -1.109094286E+03  1.109148661E+03  3.051757812E-05  0.00000E+00  9.000E+00
#rwgt            1           1   2.2637719293509160E-003           5      143427           0
</event>
<event>
      5   9999  3.79277E-02  8.62712E+01 -1.00000E+00  1.26783E-01
       2    -1     0     0   502     0  0.000000000E+00  0.000000000E+00  1.327835858E+03  1.327835858E+03  0.000000000E+00  0.00000E+00  9.000E+00
      21    -1     0     0   501   502  0.000000000E+00  0.000000000E+00 -7.685605667E+02  7.685605667E+02  0.000000000E+00  0.00000E+00  9.000E+00
      25     1     1     2     0     0  4.070047845E+01 -1.178475631E+02 -4.966213602E+02  5.270695898E+02  1.250000000E+02  0.00000E+00  9.000E+00
      25     1     1     2     0     0 -1.211667526E+02  8.673653503E+01 -2.182057767E+02  2.923069781E+02  1.250000000E+02  0.00000E+00  9.000E+00
       2     1     1     2   501     0  8.046627417E+01  3.111102810E+01  1.274102428E+03  1.277019857E+03  0.000000000E+00  0.00000E+00  9.000E+00
#rwgt            1           1   4.4606975141306522E-002           5      143658           0
</event>
<event>
      5   9999  3.79277E-02  1.42234E+01 -1.00000E+00  1.79587E-01
      21    -1     0     0   502   511  0.000000000E+00  0.000000000E+00  2.318109212E+02  2.318109212E+02  0.000000000E+00  0.00000E+00  9.000E+00
      21    -1     0     0   501   502  0.000000000E+00  0.000000000E+00 -1.556156883E+02  1.556156883E+02  0.000000000E+00  0.00000E+00  9.000E+00
      25     1     1     2     0     0  2.079484334E+01 -6.062316959E+01 -7.358157377E+01  1.585775589E+02  1.250000000E+02  0.00000E+00  9.000E+00
      25     1     1     2     0     0 -1.701925385E+01  7.433629212E+01  1.005929945E+02  1.776499081E+02  1.250000000E+02  0.00000E+00  9.000E+00
      21     1     1     2   501   511 -3.775589489E+00 -1.371312254E+01  4.918381213E+01  5.119914239E+01  0.000000000E+00  0.00000E+00  9.000E+00
#rwgt            1           1   3.8668872575277694E-002           5      143775           0
</event>
<event>
      5   9999  3.79277E-02  3.06664E+01 -1.00000E+00  1.52380E-01
      21    -1     0     0   502   501  0.000000000E+00  0.000000000E+00  7.970649974E+02  7.970649974E+02  0.000000000E+00  0.00000E+00  9.000E+00
      21    -1     0     0   501   512  0.000000000E+00  0.000000000E+00 -9.152715013E+01  9.152715013E+01  0.000000000E+00  0.00000E+00  9.000E+00
      25     1     1     2     0     0  6.806424364E+01  1.632826981E+02  1.016914852E+02  2.392909086E+02  1.250000000E+02  0.00000E+00  9.000E+00
      25     1     1     2     0     0 -5.520385314E+01 -1.354431568E+02  5.780483134E+02  6.092266957E+02  1.250000000E+02  0.00000E+00  9.000E+00
      21     1     1     2   502   512 -1.286039050E+01 -2.783954130E+01  2.579804864E+01  4.007454326E+01  0.000000000E+00  0.00000E+00  9.000E+00
#rwgt            1           1   4.2311233696817753E-002           5      143942           0
</event>
<event>
      5   9999  3.79277E-02  3.02951E+01 -1.00000E+00  1.52745E-01
      21    -1     0     0   502   511  0.000000000E+00  0.000000000E+00  1.445215870E+02  1.445215870E+02  0.000000000E+00  0.00000E+00  9.000E+00
      21    -1     0     0   501   502  0.000000000E+00  0.000000000E+00 -4.739444657E+02  4.739444657E+02  0.000000000E+00  0.00000E+00  9.000E+00
      25     1     1     2     0     0  1.379200337E+02 -4.755072502E+01 -2.551475363E+01  1.938014700E+02  1.250000000E+02  0.00000E+00  9.000E+00
      25     1     1     2     0     0 -1.632989975E+02  3.100679247E+01 -3.263345787E+02  3.869718866E+02  1.250000000E+02  0.00000E+00  9.000E+00
      21     1     1     2   501   511  2.537896388E+01  1.654393255E+01  2.242645359E+01  3.769269601E+01  4.129530925E-07  0.00000E+00  9.000E+00
#rwgt            1           1   3.7758929269433458E-002           5      144157           0
</event>
<event>
      5   9999  3.79277E-02  4.12530E+01 -1.00000E+00  1.44014E-01
      21    -1     0     0   512   501  0.000000000E+00  0.000000000E+00  3.305529950E+02  3.305529950E+02  0.000000000E+00  0.00000E+00  9.000E+00
      21    -1     0     0   501   502  0.000000000E+00  0.000000000E+00 -4.700299680E+02  4.700299680E+02  0.000000000E+00  0.00000E+00  9.000E+00
      25     1     1     2     0     0  4.535280036E+01  1.675063407E+02 -2.087667936E+02  2.988709166E+02  1.250000000E+02  0.00000E+00  9.000E+00
      25     1     1     2     0     0 -8.659212353E+01 -1.664457694E+02 -1.550441031E+02  2.736166367E+02  1.250000000E+02  0.00000E+00  9.000E+00
      21     1     1     2   512   502  4.123932316E+01 -1.060571350E+00  2.243339237E+02  2.280954097E+02  0.000000000E+00  0.00000E+00  9.000E+00
#rwgt            1           1   4.8621253431293206E-002           5      144250           0
</event>
<event>
      5   9999  3.79277E-02  3.38458E+01 -1.00000E+00  1.49488E-01
      21    -1     0     0   502   511  0.000000000E+00  0.000000000E+00  9.932762984E+01  9.932762984E+01  0.000000000E+00  0.00000E+00  9.000E+00
      21    -1     0     0   501   502  0.000000000E+00  0.000000000E+00 -8.037958005E+02  8.037958005E+02  0.000000000E+00  0.00000E+00  9.000E+00
      25     1     1     2     0     0 -2.200917153E+02  3.063503532E+01 -1.943377083E+02  3.205791843E+02  1.250000000E+02  0.00000E+00  9.000E+00
      25     1     1     2     0     0  1.903294570E+02 -1.451843808E+01 -4.958134876E+02  5.457949264E+02  1.250000000E+02  0.00000E+00  9.000E+00
      21     1     1     2   501   511  2.976225830E+01 -1.611659725E+01 -1.431697479E+01  3.674931962E+01  7.152557373E-07  0.00000E+00  9.000E+00
#rwgt            1           1   3.2817706360459165E-002           5      144387           0
</event>
<event>
      5   9999  3.79277E-02  2.59653E+01 -1.00000E+00  1.57528E-01
      21    -1     0     0   502   501  0.000000000E+00  0.000000000E+00  3.305115456E+02  3.305115456E+02  0.000000000E+00  0.00000E+00  9.000E+00
      21    -1     0     0   512   502  0.000000000E+00  0.000000000E+00 -3.559124635E+02  3.559124635E+02  0.000000000E+00  0.00000E+00  9.000E+00
      25     1     1     2     0     0 -7.467266368E+01  8.455139312E+01  2.412476093E+02  2.941944149E+02  1.250000000E+02  0.00000E+00  9.000E+00
      25     1     1     2     0     0  9.421929885E+01 -6.745964897E+01 -5.515949364E+01  1.791525893E+02  1.250000000E+02  0.00000E+00  9.000E+00
      21     1     1     2   512   501 -1.954663517E+01 -1.709174415E+01 -2.114890335E+02  2.130770048E+02  3.814697266E-06  0.00000E+00  9.000E+00
#rwgt            1           1   4.0618834777431084E-002           5      144523           0
</event>
<event>
      5   9999  3.79277E-02  1.38917E+01 -1.00000E+00  1.80583E-01
      21    -1     0     0   502   501  0.000000000E+00  0.000000000E+00  1.917915823E+02  1.917915823E+02  0.000000000E+00  0.00000E+00  9.000E+00
      21    -1     0     0   511   502  0.000000000E+00  0.000000000E+00 -5.683019708E+02  5.683019708E+02  0.000000000E+00  0.00000E+00  9.000E+00
      25     1     1     2     0     0  4.263347605E+01 -1.616913181E+02 -8.618375841E+01  2.258635337E+02  1.250000000E+02  0.00000E+00  9.000E+00
      25     1     1     2     0     0 -3.096317799E+01  1.692268451E+02  2.898213301E+01  2.146192152E+02  1.250000000E+02  0.00000E+00  9.000E+00
      21     1     1     2   511   501 -1.167029806E+01 -7.535527000E+00 -3.193087631E+02  3.196108042E+02  5.394796609E-06  0.00000E+00  9.000E+00
#rwgt            1           1  0.11536532506434917                5      144664           0
</event>
<event>
      5   9999  3.79277E-02  2.84770E+01 -1.00000E+00  1.54628E-01
      21    -1     0     0   502   512  0.000000000E+00  0.000000000E+00  2.642987284E+02  2.642987284E+02  0.000000000E+00  0.00000E+00  9.000E+00
      21    -1     0     0   501   502  0.000000000E+00  0.000000000E+00 -2.432420652E+02  2.432420652E+02  0.000000000E+00  0.00000E+00  9.000E+00
      25     1     1     2     0     0  4.410275872E+01 -1.809587169E+02 -7.985015876E+01  2.381011516E+02  1.250000000E+02  0.00000E+00  9.000E+00
      25     1     1     2     0     0 -5.712973829E+01  1.556360106E+02  5.395789437E+01  2.145293200E+02  1.250000000E+02  0.00000E+00  9.000E+00
      21     1     1     2   501   512  1.302697957E+01  2.532270625E+01  4.694892759E+01  5.491032189E+01  9.536743164E-07  0.00000E+00  9.000E+00
#rwgt            1           1   3.2444737274944298E-002           5      145084           0
</event>
<event>
      5   9999  3.79277E-02  2.74534E+01 -1.00000E+00  1.55765E-01
      21    -1     0     0   502   501  0.000000000E+00  0.000000000E+00  6.624337198E+02  6.624337198E+02  0.000000000E+00  0.00000E+00  9.000E+00
      21    -1     0     0   511   502  0.000000000E+00  0.000000000E+00 -3.193384536E+02  3.193384536E+02  0.000000000E+00  0.00000E+00  9.000E+00
      25     1     1     2     0     0  1.445864360E+02  6.515718560E+01  3.186557442E+02  3.772494925E+02  1.250000000E+02  0.00000E+00  9.000E+00
      25     1     1     2     0     0 -1.347490306E+02 -3.952688156E+01  2.855995570E+02  3.419236502E+02  1.250000000E+02  0.00000E+00  9.000E+00
      21     1     1     2   511   501 -9.837405372E+00 -2.563030404E+01 -2.611600350E+02  2.625990306E+02  3.814697266E-06  0.00000E+00  9.000E+00
#rwgt            1           1   3.7084824923714135E-002           5      145258           0
</event>
<event>
      5   9999  3.79277E-02  1.24124E+02 -1.00000E+00  1.19749E-01
      21    -1     0     0   502   512  0.000000000E+00  0.000000000E+00  1.578922428E+02  1.578922428E+02  0.000000000E+00  0.00000E+00  9.000E+00
      21    -1     0     0   501   502  0.000000000E+00  0.000000000E+00 -1.429442384E+03  1.429442384E+03  0.000000000E+00  0.00000E+00  9.000E+00
      25     1     1     2     0     0  2.511343976E+02  5.782271054E+01 -1.581486218E+02  3.271818119E+02  1.250000000E+02  0.00000E+00  9.000E+00
      25     1     1     2     0     0 -1.405513110E+02 -1.141978127E+02 -1.114508593E+03  1.136023862E+03  1.250000000E+02  0.00000E+00  9.000E+00
      21     1     1     2   501   512 -1.105830866E+02  5.637510214E+01  1.107073926E+00  1.241289523E+02  2.002529791E-06  0.00000E+00  9.000E+00
#rwgt            2          11   2.3383306262766152E-003           5      145370           0
</event>
<event>
      5   9999  3.79277E-02  1.51668E+01 -1.00000E+00  1.76932E-01
      21    -1     0     0   511   501  0.000000000E+00  0.000000000E+00  1.750963402E+02  1.750963402E+02  0.000000000E+00  0.00000E+00  9.000E+00
      21    -1     0     0   501   502  0.000000000E+00  0.000000000E+00 -1.841692132E+02  1.841692132E+02  0.000000000E+00  0.00000E+00  9.000E+00
      25     1     1     2     0     0 -8.558841144E+01  7.546451492E+01  1.995816424E+01  1.704218223E+02  1.250000000E+02  0.00000E+00  9.000E+00
      25     1     1     2     0     0  7.713408665E+01 -8.805644065E+01 -2.889381211E+01  1.736762979E+02  1.250000000E+02  0.00000E+00  9.000E+00
      21     1     1     2   511   502  8.454324797E+00  1.259192573E+01 -1.372251838E-01  1.516743327E+01  3.132568237E-07  0.00000E+00  9.000E+00
#rwgt            1           1   2.4666542142972720E-002           5      145480           0
</event>
<event>
      5   9999  3.79277E-02  1.22921E+01 -1.00000E+00  1.85937E-01
      21    -1     0     0   502   501  0.000000000E+00  0.000000000E+00  1.289761952E+03  1.289761952E+03  0.000000000E+00  0.00000E+00  9.000E+00
      21    -1     0     0   512   502  0.000000000E+00  0.000000000E+00 -4.202044142E+01  4.202044142E+01  0.000000000E+00  0.00000E+00  9.000E+00
      25     1     1     2     0     0 -1.457724085E+02  5.772962943E+01  3.434142743E+02  3.976690446E+02  1.250000000E+02  0.00000E+00  9.000E+00
      25     1     1     2     0     0  1.339120758E+02 -6.095890864E+01  9.008969476E+02  9.213515848E+02  1.250000000E+02  0.00000E+00  9.000E+00
      21     1     1     2   512   501  1.186033275E+01  3.229279213E+00  3.430288405E+00  1.276176382E+01  1.576990671E-07  0.00000E+00  9.000E+00
#rwgt            1           1   3.8669737662645261E-002           5      145810           0
</event>
<event>
      5   9999  3.79277E-02  1.00359E+01 -1.00000E+00  1.95577E-01
      21    -1     0     0   502   511  0.000000000E+00  0.000000000E+00  4.164062894E+02  4.164062894E+02  0.000000000E+00  0.00000E+00  9.000E+00
      21    -1     0     0   501   502  0.000000000E+00  0.000000000E+00 -1.490057365E+02  1.490057365E+02  0.000000000E+00  0.00000E+00  9.000E+00
      25     1     1     2     0     0  1.101915089E+02  1.066563131E+02 -3.428629711E+01  2.007941432E+02  1.250000000E+02  0.00000E+00  9.000E+00
      25     1     1     2     0     0 -1.018305952E+02 -1.011051826E+02  2.628809143E+02  3.245352110E+02  1.250000000E+02  0.00000E+00  9.000E+00
      21     1     1     2   501   511 -8.360913726E+00 -5.551130482E+00  3.880593576E+01  4.008267180E+01  0.000000000E+00  0.00000E+00  9.000E+00
#rwgt            1           1   3.6603330253563215E-002           5      146057           0
</event>
<event>
      5   9999  3.79277E-02  4.10719E+01 -1.00000E+00  1.44131E-01
      21    -1     0     0   502   501  0.000000000E+00  0.000000000E+00  4.298928875E+02  4.298928875E+02  0.000000000E+00  0.00000E+00  9.000E+00
      -1    -1     0     0     0   502  0.000000000E+00  0.000000000E+00 -1.192430320E+03  1.192430320E+03  0.000000000E+00  0.00000E+00  9.000E+00
      25     1     1     2     0     0 -7.730170286E+01  9.396977624E+01  1.332483261E+02  2.195130714E+02  1.250000000E+02  0.00000E+00  9.000E+00
      25     1     1     2     0     0  1.099126300E+02 -6.900120967E+01  2.210698197E+02  2.851996115E+02  1.250000000E+02  0.00000E+00  9.000E+00
      -1     1     1     2     0   501 -3.261092715E+01 -2.496856656E+01 -1.116855578E+03  1.117610524E+03  1.525878906E-05  0.00000E+00  9.000E+00
#rwgt            1           1   3.7521632527292036E-002           5      146386           0
</event>
<event>
      5   9999  3.79277E-02  2.79635E+01 -1.00000E+00  1.55191E-01
      21    -1     0     0   502   501  0.000000000E+00  0.000000000E+00  3.460270416E+02  3.460270416E+02  0.000000000E+00  0.00000E+00  9.000E+00
       1    -1     0     0   501     0  0.000000000E+00  0.000000000E+00 -2.105507217E+02  2.105507217E+02  0.000000000E+00  0.00000E+00  9.000E+00
      25     1     1     2     0     0 -1.504911303E+02 -7.151455342E+01  1.480019416E+02  2.555219880E+02  1.250000000E+02  0.00000E+00  9.000E+00
      25     1     1     2     0     0  1.494336277E+02  4.357107936E+01  7.184743060E+01  2.121695108E+02  1.250000000E+02  0.00000E+00  9.000E+00
       1     1     1     2   502     0  1.057502558E+00  2.794347406E+01 -8.437305234E+01  8.888626449E+01  9.536743164E-07  0.00000E+00  9.000E+00
#rwgt            1           1   3.6812613973270861E-002           5      146564           0
</event>
<event>
      5   9999 -3.79277E-02  1.39304E+01 -1.00000E+00  1.80465E-01
      21    -1     0     0   502   501  0.000000000E+00  0.000000000E+00  2.818513564E+02  2.818513564E+02  0.000000000E+00  0.00000E+00  9.000E+00
      21    -1     0     0   501   511  0.000000000E+00  0.000000000E+00 -1.887240761E+02  1.887240761E+02  0.000000000E+00  0.00000E+00  9.000E+00
      25     1     1     2     0     0  1.521519990E+02  8.308886085E+01  4.631438815E+01  2.186870187E+02  1.250000000E+02  0.00000E+00  9.000E+00
      25     1     1     2     0     0 -1.386963778E+02 -8.669485423E+01  7.608635597E+01  2.194693977E+02  1.250000000E+02  0.00000E+00  9.000E+00
      21     1     1     2   502   511 -1.345562115E+01  3.605993380E+00 -2.927346377E+01  3.241901618E+01  0.000000000E+00  0.00000E+00  9.000E+00
#rwgt            1           1 -0.15292310667945413                5      146768           0
</event>
<event>
      5   9999  3.79277E-02  6.10768E+01 -1.00000E+00  1.34292E-01
      21    -1     0     0   502   512  0.000000000E+00  0.000000000E+00  1.732752909E+02  1.732752909E+02  0.000000000E+00  0.00000E+00  9.000E+00
      21    -1     0     0   501   502  0.000000000E+00  0.000000000E+00 -5.120956716E+02  5.120956716E+02  0.000000000E+00  0.00000E+00  9.000E+00
      25     1     1     2     0     0 -6.528257473E+01 -8.103731681E+00  2.714125593E+01  1.438371746E+02  1.250000000E+02  0.00000E+00  9.000E+00
      25     1     1     2     0     0  1.247141585E+02 -5.976887762E+00 -4.227201324E+02  4.581557102E+02  1.250000000E+02  0.00000E+00  9.000E+00
      21     1     1     2   501   512 -5.943158377E+01  1.408061944E+01  5.675849569E+01  8.337807761E+01  9.536743164E-07  0.00000E+00  9.000E+00
#rwgt            2          11   1.4633561565845837E-003           5      147179           0
</event>
<event>
      5   9999  3.79277E-02  2.73203E+01 -1.00000E+00  1.55917E-01
      21    -1     0     0   502   501  0.000000000E+00  0.000000000E+00  1.940304872E+02  1.940304872E+02  0.000000000E+00  0.00000E+00  9.000E+00
      -2    -1     0     0     0   502  0.000000000E+00  0.000000000E+00 -7.228065976E+02  7.228065976E+02  0.000000000E+00  0.00000E+00  9.000E+00
      25     1     1     2     0     0  6.351163339E+01 -1.205382280E+02  8.743257893E+01  2.045303104E+02  1.250000000E+02  0.00000E+00  9.000E+00
      25     1     1     2     0     0 -4.282121391E+01  1.026971427E+02 -9.912581661E+01  1.945026658E+02  1.250000000E+02  0.00000E+00  9.000E+00
      -2     1     1     2     0   501 -2.069041948E+01  1.784108536E+01 -5.170828726E+02  5.178041087E+02  7.629394531E-06  0.00000E+00  9.000E+00
#rwgt            1           1   2.7981588908663896E-002           5      147244           0
</event>
<event>
      5   9999  3.79277E-02  1.08023E+02 -1.00000E+00  1.22339E-01
      21    -1     0     0   502   511  0.000000000E+00  0.000000000E+00  1.725513334E+03  1.725513334E+03  0.000000000E+00  0.00000E+00  9.000E+00
      21    -1     0     0   501   502  0.000000000E+00  0.000000000E+00 -1.480815496E+02  1.480815496E+02  0.000000000E+00  0.00000E+00  9.000E+00
      25     1     1     2     0     0  1.989487018E+02 -2.291798269E+02  1.791658487E+02  3.739376691E+02  1.250000000E+02  0.00000E+00  9.000E+00
      25     1     1     2     0     0 -2.492454937E+02  3.247785965E+02  1.196993999E+03  1.271229360E+03  1.250000000E+02  0.00000E+00  9.000E+00
      21     1     1     2   501   511  5.029679190E+01 -9.559876956E+01  2.012719366E+02  2.284278540E+02  3.814697266E-06  0.00000E+00  9.000E+00
#rwgt            1           1  0.11537047230925480                5      147393           0
</event>
<event>
      5   9999  3.79277E-02  2.23699E+02 -1.00000E+00  1.09906E-01
      21    -1     0     0   512   501  0.000000000E+00  0.000000000E+00  9.849437371E+02  9.849437371E+02  0.000000000E+00  0.00000E+00  9.000E+00
      21    -1     0     0   501   502  0.000000000E+00  0.000000000E+00 -1.537011267E+02  1.537011267E+02  0.000000000E+00  0.00000E+00  9.000E+00
      25     1     1     2     0     0 -6.528843741E+01  3.102799928E+01 -3.771343157E+01  1.492401411E+02  1.250000000E+02  0.00000E+00  9.000E+00
      25     1     1     2     0     0  6.212330714E+00  1.847288989E+02  5.965775299E+02  6.369404276E+02  1.250000000E+02  0.00000E+00  9.000E+00
      21     1     1     2   512   502  5.907610670E+01 -2.157568981E+02  2.723785121E+02  3.524642951E+02  6.607249480E-06  0.00000E+00  9.000E+00
#rwgt            1           1   4.5808701828688021E-002           5      147503           0
</event>
<event>
      5   9999  3.79277E-02  1.34906E+01 -1.00000E+00  1.81836E-01
      21    -1     0     0   511   501  0.000000000E+00  0.000000000E+00  8.656784986E+01  8.656784986E+01  0.000000000E+00  0.00000E+00  9.000E+00
      21    -1     0     0   501   502  0.000000000E+00  0.000000000E+00 -7.053196325E+02  7.053196325E+02  0.000000000E+00  0.00000E+00  9.000E+00
      25     1     1     2     0     0  5.640349641E+01  1.277566830E+02 -4.977212650E+02  5.318407488E+02  1.250000000E+02  0.00000E+00  9.000E+00
      25     1     1     2     0     0 -4.335172592E+01 -1.311696878E+02 -1.425930797E+02  2.346116909E+02  1.250000000E+02  0.00000E+00  9.000E+00
      21     1     1     2   511   502 -1.305177049E+01  3.413004838E+00  2.156256202E+01  2.543504268E+01  6.307962682E-07  0.00000E+00  9.000E+00
#rwgt            1           1   3.9887010353788471E-002           5      147541           0
</event>
<event>
      5   9999  3.79277E-02  1.10526E+02 -1.00000E+00  1.21904E-01
      21    -1     0     0   502   512  0.000000000E+00  0.000000000E+00  2.088234571E+03  2.088234571E+03  0.000000000E+00  0.00000E+00  9.000E+00
      21    -1     0     0   501   502  0.000000000E+00  0.000000000E+00 -1.241870693E+02  1.241870693E+02  0.000000000E+00  0.00000E+00  9.000E+00
      25     1     1     2     0     0 -1.000456013E+02  5.080065359E+01  3.754133763E+02  4.112785332E+02  1.250000000E+02  0.00000E+00  9.000E+00
      25     1     1     2     0     0  7.767064959E+01  5.743706774E+01 -4.461680877E+01  1.641566514E+02  1.250000000E+02  0.00000E+00  9.000E+00
      21     1     1     2   501   512  2.237495167E+01 -1.082377213E+02  1.633250935E+03  1.636986456E+03  0.000000000E+00  0.00000E+00  9.000E+00
#rwgt            1           1   5.1155270394617272E-002           5      147829           0
</event>
<event>
      5   9999  3.79277E-02  8.13830E+00 -1.00000E+00  2.06702E-01
      21    -1     0     0   511   501  0.000000000E+00  0.000000000E+00  1.008130625E+02  1.008130625E+02  0.000000000E+00  0.00000E+00  9.000E+00
      21    -1     0     0   501   502  0.000000000E+00  0.000000000E+00 -8.254345573E+02  8.254345573E+02  0.000000000E+00  0.00000E+00  9.000E+00
      25     1     1     2     0     0  7.525380385E+01  1.388430115E+02 -5.020309484E+01  2.075713554E+02  1.250000000E+02  0.00000E+00  9.000E+00
      25     1     1     2     0     0 -6.850232914E+01 -1.342988393E+02 -6.807530199E+02  7.083631989E+02  1.250000000E+02  0.00000E+00  9.000E+00
      21     1     1     2   511   502 -6.751474704E+00 -4.544172237E+00  6.334619942E+00  1.031306559E+01  8.429369702E-08  0.00000E+00  9.000E+00
#rwgt            1           1   5.7720913876253228E-002           5      147920           0
</event>
<event>
      5   9999  3.79277E-02  3.80294E+01 -1.00000E+00  1.46214E-01
      21    -1     0     0   502   501  0.000000000E+00  0.000000000E+00  1.239512512E+03  1.239512512E+03  0.000000000E+00  0.00000E+00  9.000E+00
      21    -1     0     0   501   512  0.000000000E+00  0.000000000E+00 -5.498418229E+01  5.498418229E+01  0.000000000E+00  0.00000E+00  9.000E+00
      25     1     1     2     0     0  1.179129418E+02 -8.059165809E+00  7.383258115E+02  7.581018506E+02  1.250000000E+02  0.00000E+00  9.000E+00
      25     1     1     2     0     0 -1.526607182E+02  2.351329449E+01  4.557516794E+02  4.971848381E+02  1.250000000E+02  0.00000E+00  9.000E+00
      21     1     1     2   502   512  3.474777639E+01 -1.545412868E+01 -9.549161239E+00  3.921000558E+01  1.233110479E-06  0.00000E+00  9.000E+00
#rwgt            1           1   3.6826147324857471E-002           5      148206           0
</event>
<event>
      5   9999  3.79277E-02  1.09173E+02 -1.00000E+00  1.22138E-01
      21    -1     0     0   502   501  0.000000000E+00  0.000000000E+00  5.924969371E+01  5.924969371E+01  0.000000000E+00  0.00000E+00  9.000E+00
       2    -1     0     0   501     0  0.000000000E+00  0.000000000E+00 -3.018782429E+03  3.018782429E+03  0.000000000E+00  0.00000E+00  9.000E+00
      25     1     1     2     0     0  5.089659729E+01 -2.175384674E+02 -4.718432230E+02  5.368188479E+02  1.250000000E+02  0.00000E+00  9.000E+00
      25     1     1     2     0     0 -1.585708748E+02  2.355657491E+02 -9.442186381E+02  9.938862012E+02  1.250000000E+02  0.00000E+00  9.000E+00
       2     1     1     2   502     0  1.076742775E+02 -1.802728168E+01 -1.543470874E+03  1.547327073E+03  0.000000000E+00  0.00000E+00  9.000E+00
#rwgt            1           1   4.0347205382736534E-002           5      148282           0
</event>
<event>
      5   9999  3.79277E-02  1.64487E+02 -1.00000E+00  1.14829E-01
      21    -1     0     0   502   501  0.000000000E+00  0.000000000E+00  1.015633197E+03  1.015633197E+03  0.000000000E+00  0.00000E+00  9.000E+00
      21    -1     0     0   511   502  0.000000000E+00  0.000000000E+00 -1.016681828E+02  1.016681828E+02  0.000000000E+00  0.00000E+00  9.000E+00
      25     1     1     2     0     0  1.410811275E+01  1.904190931E+02  2.389777527E+02  3.304449064E+02  1.250000000E+02  0.00000E+00  9.000E+00
      25     1     1     2     0     0  1.726881134E+01 -2.895275722E+01  5.854197642E+02  5.995646540E+02  1.250000000E+02  0.00000E+00  9.000E+00
      21     1     1     2   511   501 -3.137692408E+01 -1.614663358E+02  8.956749674E+01  1.872918189E+02  2.132480600E-06  0.00000E+00  9.000E+00
#rwgt            1           1   4.6320554363753076E-002           5      148344           0
</event>
<event>
      5   9999  3.79277E-02  1.23132E+01 -1.00000E+00  1.85859E-01
       2    -1     0     0   502     0  0.000000000E+00  0.000000000E+00  5.438857501E+03  5.438857501E+03  0.000000000E+00  0.00000E+00  9.000E+00
      21    -1     0     0   501   502  0.000000000E+00  0.000000000E+00 -8.741238971E+01  8.741238971E+01  0.000000000E+00  0.00000E+00  9.000E+00
      25     1     1     2     0     0  1.919509302E+02 -1.122125610E+02  4.647131892E+02  5.301133526E+02  1.250000000E+02  0.00000E+00  9.000E+00
      25     1     1     2     0     0 -2.042496143E+02  1.116141252E+02  2.642875566E+02  3.736957726E+02  1.250000000E+02  0.00000E+00  9.000E+00
       2     1     1     2   501     0  1.229868412E+01  5.984357714E-01  4.622444366E+03  4.622460766E+03  0.000000000E+00  0.00000E+00  9.000E+00
#rwgt            1           1   2.8393531365970507E-002           5      148408           0
</event>
<event>
      5   9999  3.79277E-02  1.66152E+01 -1.00000E+00  1.73299E-01
      21    -1     0     0   511   501  0.000000000E+00  0.000000000E+00  8.284165131E+01  8.284165131E+01  0.000000000E+00  0.00000E+00  9.000E+00
      21    -1     0     0   501   502  0.000000000E+00  0.000000000E+00 -1.478353935E+03  1.478353935E+03  0.000000000E+00  0.00000E+00  9.000E+00
      25     1     1     2     0     0  2.498376693E+02 -1.235740981E+02 -6.069308245E+02  6.794699732E+02  1.250000000E+02  0.00000E+00  9.000E+00
      25     1     1     2     0     0 -2.574863351E+02  1.383241226E+02 -8.004774457E+02  8.612908433E+02  1.250000000E+02  0.00000E+00  9.000E+00
      21     1     1     2   511   502  7.648665836E+00 -1.475002448E+01  1.189598669E+01  2.043476965E+01  5.331201500E-07  0.00000E+00  9.000E+00
#rwgt            1           1   4.1149729039426923E-002           5      148666           0
</event>
<event>
      5   9999  3.79277E-02  2.92029E+01 -1.00000E+00  1.53857E-01
      21    -1     0     0   502   512  0.000000000E+00  0.000000000E+00  1.007323791E+02  1.007323791E+02  0.000000000E+00  0.00000E+00  9.000E+00
      21    -1     0     0   501   502  0.000000000E+00  0.000000000E+00 -3.174896015E+02  3.174896015E+02  0.000000000E+00  0.00000E+00  9.000E+00
      25     1     1     2     0     0  1.073917127E+01  7.087977402E+01 -1.989079166E+02  2.456188744E+02  1.250000000E+02  0.00000E+00  9.000E+00
      25     1     1     2     0     0 -3.575039657E+01 -5.580502177E+01 -2.173705365E+01  1.431425542E+02  1.250000000E+02  0.00000E+00  9.000E+00
      21     1     1     2   501   512  2.501122530E+01 -1.507475225E+01  3.887747912E+00  2.946055210E+01  3.209808354E-07  0.00000E+00  9.000E+00
#rwgt            1           1   5.4590227306498575E-002           5      148922           0
</event>
<event>
      5   9999  3.79277E-02  2.47347E+01 -1.00000E+00  1.59099E-01
      21    -1     0     0   502   501  0.000000000E+00  0.000000000E+00  1.468383441E+02  1.468383441E+02  0.000000000E+00  0.00000E+00  9.000E+00
      21    -1     0     0   501   511  0.000000000E+00  0.000000000E+00 -5.550228069E+02  5.550228069E+02  0.000000000E+00  0.00000E+00  9.000E+00
      25     1     1     2     0     0  1.337866445E+02 -8.606443946E+00 -1.789538905E+02  2.561687569E+02  1.250000000E+02  0.00000E+00  9.000E+00
      25     1     1     2     0     0 -1.434502283E+02 -1.416240637E+01  2.306593483E+01  1.921863135E+02  1.250000000E+02  0.00000E+00  9.000E+00
      21     1     1     2   502   511  9.663583791E+00  2.276885032E+01 -2.522965071E+02  2.535060806E+02  0.000000000E+00  0.00000E+00  9.000E+00
#rwgt            1           1   3.6937419857717334E-002           5      149046           0
</event>
<event>
      5   9999  3.79277E-02  5.50195E+01 -1.00000E+00  1.36746E-01
      21    -1     0     0   502   501  0.000000000E+00  0.000000000E+00  2.302047305E+02  2.302047305E+02  0.000000000E+00  0.00000E+00  9.000E+00
      21    -1     0     0   512   502  0.000000000E+00  0.000000000E+00 -7.779882371E+02  7.779882371E+02  0.000000000E+00  0.00000E+00  9.000E+00
      25     1     1     2     0     0  2.466187504E+01 -7.305002870E+01  1.917455298E+02  2.415281826E+02  1.250000000E+02  0.00000E+00  9.000E+00
      25     1     1     2     0     0 -6.697306653E+01  3.788035034E+01 -5.167873956E+02  5.372285592E+02  1.250000000E+02  0.00000E+00  9.000E+00
      21     1     1     2   512   501  4.231119149E+01  3.516967836E+01 -2.227416408E+02  2.294362258E+02  0.000000000E+00  0.00000E+00  9.000E+00
#rwgt            1           1   4.2355383017004089E-002           5      149204           0
</event>
<event>
      5   9999  3.79277E-02  4.74738E+01 -1.00000E+00  1.40372E-01
      21    -1     0     0   502   501  0.000000000E+00  0.000000000E+00  2.437060411E+02  2.437060411E+02  0.000000000E+00  0.00000E+00  9.000E+00
       1    -1     0     0   501     0  0.000000000E+00  0.000000000E+00 -4.855639811E+02  4.855639811E+02  0.000000000E+00  0.00000E+00  9.000E+00
      25     1     1     2     0     0  7.465859396E+01 -6.896968174E+01 -5.862795724E+01  1.714437518E+02  1.250000000E+02  0.00000E+00  9.000E+00
      25     1     1     2     0     0 -5.500200306E+01  1.121828425E+02  1.435054857E+02  2.276599106E+02  1.250000000E+02  0.00000E+00  9.000E+00
       1     1     1     2   502     0 -1.965659090E+01 -4.321316074E+01 -3.267354684E+02  3.301663598E+02  0.000000000E+00  0.00000E+00  9.000E+00
#rwgt            1           1   4.1399035732080806E-002           5      149351           0
</event>
<event>
      5   9999  3.79277E-02  5.88753E+01 -1.00000E+00  1.35144E-01
       2    -1     0     0   502     0  0.000000000E+00  0.000000000E+00  5.128519119E+02  5.128519119E+02  0.000000000E+00  0.00000E+00  9.000E+00
      21    -1     0     0   501   502  0.000000000E+00  0.000000000E+00 -1.304135740E+02  1.304135740E+02  0.000000000E+00  0.00000E+00  9.000E+00
      25     1     1     2     0     0 -1.856601635E+01  1.931165576E+02  3.041145975E+02  3.817713847E+02  1.250000000E+02  0.00000E+00  9.000E+00
      25     1     1     2     0     0  1.256068692E+01 -1.345483366E+02  8.400870509E+01  2.023449734E+02  1.250000000E+02  0.00000E+00  9.000E+00
       2     1     1     2   501     0  6.005329432E+00 -5.856822098E+01 -5.684964692E+00  5.914912775E+01  1.481747972E-06  0.00000E+00  9.000E+00
#rwgt            1           1   3.8983017293634618E-002           5      149476           0
</event>
<event>
      5   9999  3.79277E-02  5.16751E+01 -1.00000E+00  1.38264E-01
      21    -1     0     0   502   501  0.000000000E+00  0.000000000E+00  7.880577621E+02  7.880577621E+02  0.000000000E+00  0.00000E+00  9.000E+00
      21    -1     0     0   511   502  0.000000000E+00  0.000000000E+00 -6.179056659E+02  6.179056659E+02  0.000000000E+00  0.00000E+00  9.000E+00
      25     1     1     2     0     0 -2.569737503E+01  1.887645835E+02  4.674270639E+02  5.200052722E+02  1.250000000E+02  0.00000E+00  9.000E+00
      25     1     1     2     0     0  6.480957889E+01 -1.549926023E+02  2.557415944E+02  3.305325270E+02  1.250000000E+02  0.00000E+00  9.000E+00
      21     1     1     2   511   501 -3.911220386E+01 -3.377198118E+01 -5.530165621E+02  5.554256289E+02  7.629394531E-06  0.00000E+00  9.000E+00
#rwgt            1           1   4.5482258177639130E-002           5      149539           0
</event>
<event>
      5   9999  3.79277E-02  4.33333E+01 -1.00000E+00  1.42717E-01
      21    -1     0     0   502   512  0.000000000E+00  0.000000000E+00  7.838730656E+01  7.838730656E+01  0.000000000E+00  0.00000E+00  9.000E+00
      21    -1     0     0   501   502  0.000000000E+00  0.000000000E+00 -4.211277894E+02  4.211277894E+02  0.000000000E+00  0.00000E+00  9.000E+00
      25     1     1     2     0     0  1.740736425E+01 -9.457622207E+01 -1.885488808E+02  2.458116323E+02  1.250000000E+02  0.00000E+00  9.000E+00
      25     1     1     2     0     0  2.590537742E+01  9.324069814E+01 -1.185520218E+02  1.975968073E+02  1.250000000E+02  0.00000E+00  9.000E+00
      21     1     1     2   501   512 -4.331274167E+01  1.335523933E+00 -3.563958028E+01  5.610665645E+01  0.000000000E+00  0.00000E+00  9.000E+00
#rwgt            1           1   4.2902237911152774E-002           5      149623           0
</event>
<event>
      5   9999  3.79277E-02  7.44052E+01 -1.00000E+00  1.29892E-01
      21    -1     0     0   511   501  0.000000000E+00  0.000000000E+00  8.775880784E+01  8.775880784E+01  0.000000000E+00  0.00000E+00  9.000E+00
      21    -1     0     0   501   502  0.000000000E+00  0.000000000E+00 -6.277796062E+02  6.277796062E+02  0.000000000E+00  0.00000E+00  9.000E+00
      25     1     1     2     0     0 -5.176564608E+01  4.945789663E+01 -3.745330601E+02  4.012801749E+02  1.250000000E+02  0.00000E+00  9.000E+00
      25     1     1     2     0     0  1.124176946E+02 -9.255618794E+01 -1.078386572E+02  2.201330552E+02  1.250000000E+02  0.00000E+00  9.000E+00
      21     1     1     2   511   502 -6.065204856E+01  4.309829131E+01 -5.764908109E+01  9.412518397E+01  1.168007728E-06  0.00000E+00  9.000E+00
#rwgt            1           1   2.9773142024561720E-002           5      149739           0
</event>
<event>
      5   9999  3.79277E-02  1.69984E+01 -1.00000E+00  1.72415E-01
      21    -1     0     0   502   501  0.000000000E+00  0.000000000E+00  4.317536715E+02  4.317536715E+02  0.000000000E+00  0.00000E+00  9.000E+00
      21    -1     0     0   501   512  0.000000000E+00  0.000000000E+00 -1.214844920E+02  1.214844920E+02  0.000000000E+00  0.00000E+00  9.000E+00
      25     1     1     2     0     0  1.286939882E+02 -4.514001071E+01  2.978819556E+02  3.506542779E+02  1.250000000E+02  0.00000E+00  9.000E+00
      25     1     1     2     0     0 -1.324679788E+02  2.856584408E+01  6.104240845E+00  1.844614719E+02  1.250000000E+02  0.00000E+00  9.000E+00
      21     1     1     2   502   512  3.773990584E+00  1.657416662E+01  6.282983105E+00  1.812241377E+01  3.371747881E-07  0.00000E+00  9.000E+00
#rwgt            1           1   2.3086591693802207E-002           5      150067           0
</event>
<event>
      5   9999  3.79277E-02  7.26442E+01 -1.00000E+00  1.30410E-01
      21    -1     0     0   502   501  0.000000000E+00  0.000000000E+00  4.824813823E+02  4.824813823E+02  0.000000000E+00  0.00000E+00  9.000E+00
      21    -1     0     0   501   511  0.000000000E+00  0.000000000E+00 -9.555467174E+02  9.555467174E+02  0.000000000E+00  0.00000E+00  9.000E+00
      25     1     1     2     0     0  2.654110411E+02 -6.301344920E+01  3.579906909E+02  4.671146008E+02  1.250000000E+02  0.00000E+00  9.000E+00
      25     1     1     2     0     0 -3.245920832E+02  1.051415836E+02 -4.283815961E+02  5.617388761E+02  1.250000000E+02  0.00000E+00  9.000E+00
      21     1     1     2   502   511  5.918104205E+01 -4.212813436E+01 -4.026744299E+02  4.091746228E+02  0.000000000E+00  0.00000E+00  9.000E+00
#rwgt            1           1  0.21318451843363437                5      150349           0
</event>
<event>
      5   9999  3.79277E-02  2.22240E+01 -1.00000E+00  1.62677E-01
      21    -1     0     0   502   501  0.000000000E+00  0.000000000E+00  6.052507179E+01  6.052507179E+01  0.000000000E+00  0.00000E+00  9.000E+00
      21    -1     0     0   501   512  0.000000000E+00  0.000000000E+00 -9.530738239E+02  9.530738239E+02  0.000000000E+00  0.00000E+00  9.000E+00
      25     1     1     2     0     0 -4.576202993E+01 -1.702038702E+02 -4.183123046E+02  4.708223710E+02  1.250000000E+02  0.00000E+00  9.000E+00
      25     1     1     2     0     0  3.378941676E+01  1.889272418E+02 -3.620957217E+02  4.284548273E+02  1.250000000E+02  0.00000E+00  9.000E+00
      21     1     1     2   502   512  1.197261317E+01 -1.872337161E+01 -1.121407258E+02  1.143216974E+02  2.336015456E-06  0.00000E+00  9.000E+00
#rwgt            1           1   4.1131527244122619E-002           5      150557           0
</event>
<event>
      5   9999  3.79277E-02  6.30300E+01 -1.00000E+00  1.33570E-01
      21    -1     0     0   502   501  0.000000000E+00  0.000000000E+00  2.937323305E+02  2.937323305E+02  0.000000000E+00  0.00000E+00  9.000E+00
       1    -1     0     0   501     0  0.000000000E+00  0.000000000E+00 -4.864394917E+02  4.864394917E+02  0.000000000E+00  0.00000E+00  9.000E+00
      25     1     1     2     0     0 -1.262611640E+02 -4.553959479E+01  1.129565419E+02  2.154063987E+02  1.250000000E+02  0.00000E+00  9.000E+00
      25     1     1     2     0     0  1.270511586E+02  1.085646326E+02  4.077449457E+01  2.126401556E+02  1.250000000E+02  0.00000E+00  9.000E+00
       1     1     1     2   502     0 -7.899946030E-01 -6.302503782E+01 -3.464381977E+02  3.521252679E+02  3.814697266E-06  0.00000E+00  9.000E+00
#rwgt            1           1   2.8509522820530746E-002           5      150790           0
</event>
<event>
      5   9999  3.79277E-02  3.24948E+01 -1.00000E+00  1.50669E-01
      21    -1     0     0   502   501  0.000000000E+00  0.000000000E+00  1.650815059E+02  1.650815059E+02  0.000000000E+00  0.00000E+00  9.000E+00
      21    -1     0     0   501   511  0.000000000E+00  0.000000000E+00 -2.406926981E+02  2.406926981E+02  0.000000000E+00  0.00000E+00  9.000E+00
      25     1     1     2     0     0 -9.931501889E+01 -7.053380783E+01 -9.786886837E+01  2.001044888E+02  1.250000000E+02  0.00000E+00  9.000E+00
      25     1     1     2     0     0  7.857657638E+01  4.551716991E+01  5.057286099E+01  1.625690788E+02  1.250000000E+02  0.00000E+00  9.000E+00
      21     1     1     2   502   511  2.073844251E+01  2.501663792E+01 -2.831518480E+01  4.310063643E+01  3.371747881E-07  0.00000E+00  9.000E+00
#rwgt            1           1   3.4992175180988357E-002           5      150872           0
</event>
<event>
      5   9999  3.79277E-02  7.37041E+01 -1.00000E+00  1.30097E-01
      21    -1     0     0   512   501  0.000000000E+00  0.000000000E+00  2.746042835E+02  2.746042835E+02  0.000000000E+00  0.00000E+00  9.000E+00
      21    -1     0     0   501   502  0.000000000E+00  0.000000000E+00 -6.094619481E+02  6.094619481E+02  0.000000000E+00  0.00000E+00  9.000E+00
      25     1     1     2     0     0 -1.859942614E+02 -1.678536111E+02 -1.202934600E+02  3.047363066E+02  1.250000000E+02  0.00000E+00  9.000E+00
      25     1     1     2     0     0  2.142813506E+02  9.979381016E+01 -3.407834560E+02  4.331670182E+02  1.250000000E+02  0.00000E+00  9.000E+00
      21     1     1     2   512   502 -2.828708924E+01  6.805980097E+01  1.262192514E+02  1.461629069E+02  2.336015456E-06  0.00000E+00  9.000E+00
#rwgt            1           1   3.9182763341199113E-002           5      151099           0
</event>
<event>
      5   9999  3.79277E-02  5.12885E+01 -1.00000E+00  1.38448E-01
      21    -1     0     0   502   511  0.000000000E+00  0.000000000E+00  3.525029936E+03  3.525029936E+03  0.000000000E+00  0.00000E+00  9.000E+00
      21    -1     0     0   501   502  0.000000000E+00  0.000000000E+00 -1.583025899E+02  1.583025899E+02  0.000000000E+00  0.00000E+00  9.000E+00
      25     1     1     2     0     0 -1.047757088E+01  1.875455395E+01  1.463628684E+02  1.936713764E+02  1.250000000E+02  0.00000E+00  9.000E+00
      25     1     1     2     0     0  2.989544220E+01  2.871598827E+01 -1.022018313E+02  1.666990095E+02  1.250000000E+02  0.00000E+00  9.000E+00
      21     1     1     2   501   511 -1.941787132E+01 -4.747054222E+01  3.322566309E+03  3.322962140E+03  4.315837288E-05  0.00000E+00  9.000E+00
#rwgt            1           1   3.2165835254186363E-002           5      151178           0
</event>
<event>
      5   9999  3.79277E-02  2.87202E+01 -1.00000E+00  1.54367E-01
      21    -1     0     0   512   501  0.000000000E+00  0.000000000E+00  9.405560539E+01  9.405560539E+01  0.000000000E+00  0.00000E+00  9.000E+00
      21    -1     0     0   501   502  0.000000000E+00  0.000000000E+00 -4.453763105E+02  4.453763105E+02  0.000000000E+00  0.00000E+00  9.000E+00
      25     1     1     2     0     0  5.778206642E+01 -9.627459821E+01 -5.955107853E+01  1.782663637E+02  1.250000000E+02  0.00000E+00  9.000E+00
      25     1     1     2     0     0 -3.282378137E+01  8.206423580E+01 -2.949058796E+02  3.322746112E+02  1.250000000E+02  0.00000E+00  9.000E+00
      21     1     1     2   512   502 -2.495828506E+01  1.421036241E+01  3.136252989E+00  2.889094106E+01  3.576278687E-07  0.00000E+00  9.000E+00
#rwgt            1           1   4.9509311708482079E-002           5      151266           0
</event>
<event>
      5   9999  3.87354E-02  4.23950E+01 -1.00000E+00  1.43291E-01
      21    -1     0     0   502   511  0.000000000E+00  0.000000000E+00  5.507585013E+01  5.507585013E+01  0.000000000E+00  0.00000E+00  9.000E+00
      21    -1     0     0   501   502  0.000000000E+00  0.000000000E+00 -1.226434097E+03  1.226434097E+03  0.000000000E+00  0.00000E+00  9.000E+00
      25     1     1     2     0     0 -2.872969663E+01 -1.957340907E+02 -5.245785809E+02  5.744083193E+02  1.250000000E+02  0.00000E+00  9.000E+00
      25     1     1     2     0     0 -1.316336932E+01  2.022383861E+02 -5.900226916E+02  6.362589220E+02  1.250000000E+02  0.00000E+00  9.000E+00
      21     1     1     2   501   511  4.189306595E+01 -6.504295409E+00 -5.675697406E+01  7.084270561E+01  1.651812370E-06  0.00000E+00  9.000E+00
#rwgt            1           1  0.40666327859522122                5      151393           0
</event>
<event>
      5   9999  3.79277E-02  1.98762E+02 -1.00000E+00  1.11746E-01
      21    -1     0     0   512   501  0.000000000E+00  0.000000000E+00  5.932642261E+02  5.932642261E+02  0.000000000E+00  0.00000E+00  9.000E+00
      21    -1     0     0   501   502  0.000000000E+00  0.000000000E+00 -2.933667203E+02  2.933667203E+02  0.000000000E+00  0.00000E+00  9.000E+00
      25     1     1     2     0     0  1.131969173E+02  1.240856596E+02  1.245033383E+02  2.435916136E+02  1.250000000E+02  0.00000E+00  9.000E+00
      25     1     1     2     0     0  7.994161606E+01 -1.710314796E+02 -1.429266282E+02  2.677600606E+02  1.250000000E+02  0.00000E+00  9.000E+00
      21     1     1     2   512   502 -1.931385333E+02  4.694582002E+01  3.183207957E+02  3.752792721E+02  3.814697266E-06  0.00000E+00  9.000E+00
#rwgt            1           1   4.8251403666864409E-002           5      151573           0
</event>
<event>
      5   9999  3.79277E-02  2.23187E+01 -1.00000E+00  1.62532E-01
      21    -1     0     0   502   511  0.000000000E+00  0.000000000E+00  2.762191530E+02  2.762191530E+02  0.000000000E+00  0.00000E+00  9.000E+00
      21    -1     0     0   501   502  0.000000000E+00  0.000000000E+00 -2.810668482E+02  2.810668482E+02  0.000000000E+00  0.00000E+00  9.000E+00
      25     1     1     2     0     0  1.589278593E+02  1.654095582E+02  1.334056427E+01  2.615747638E+02  1.250000000E+02  0.00000E+00  9.000E+00
      25     1     1     2     0     0 -1.748869476E+02 -1.498072729E+02 -3.935020876E+01  2.649549063E+02  1.250000000E+02  0.00000E+00  9.000E+00
      21     1     1     2   501   511  1.595908830E+01 -1.560228529E+01  2.116194930E+01  3.075633112E+01  3.371747881E-07  0.00000E+00  9.000E+00
#rwgt            1           1  0.12440788695866273                5      151643           0
</event>
<event>
      5   9999  3.79277E-02  1.58677E+01 -1.00000E+00  1.75113E-01
      21    -1     0     0   502   501  0.000000000E+00  0.000000000E+00  5.807747407E+01  5.807747407E+01  0.000000000E+00  0.00000E+00  9.000E+00
      21    -1     0     0   501   512  0.000000000E+00  0.000000000E+00 -1.333817679E+03  1.333817679E+03  0.000000000E+00  0.00000E+00  9.000E+00
      25     1     1     2     0     0  6.059954305E+01 -2.158680150E+02 -6.863277366E+02  7.327633087E+02  1.250000000E+02  0.00000E+00  9.000E+00
      25     1     1     2     0     0 -7.601868960E+01  2.121217772E+02 -4.479105611E+02  5.167430312E+02  1.250000000E+02  0.00000E+00  9.000E+00
      21     1     1     2   502   512  1.541914656E+01  3.746237834E+00 -1.415019069E+02  1.423888129E+02  2.697398305E-06  0.00000E+00  9.000E+00
#rwgt            1           1   3.9368491025973812E-002           5      152084           0
</event>
<event>
      5   9999  3.79277E-02  2.45622E+01 -1.00000E+00  1.59328E-01
      21    -1     0     0   511   501  0.000000000E+00  0.000000000E+00  4.039525586E+02  4.039525586E+02  0.000000000E+00  0.00000E+00  9.000E+00
      21    -1     0     0   501   502  0.000000000E+00  0.000000000E+00 -5.260017222E+01  5.260017222E+01  0.000000000E+00  0.00000E+00  9.000E+00
      25     1     1     2     0     0 -1.310144745E+01  2.197365205E+01  1.126934609E+02  1.702330915E+02  1.250000000E+02  0.00000E+00  9.000E+00
      25     1     1     2     0     0  1.003667628E+00 -4.334993909E+01  1.864752581E+02  2.286443667E+02  1.250000000E+02  0.00000E+00  9.000E+00
      21     1     1     2   511   502  1.209777982E+01  2.137628704E+01  5.218366740E+01  5.767527258E+01  1.168007728E-06  0.00000E+00  9.000E+00
#rwgt            1           1   9.7136192436120417E-003           5      152382           0
</event>
<event>
      5   9999  3.79277E-02  7.36241E+00 -1.00000E+00  2.12501E-01
      21    -1     0     0   512   501  0.000000000E+00  0.000000000E+00  1.816441125E+02  1.816441125E+02  0.000000000E+00  0.00000E+00  9.000E+00
      21    -1     0     0   501   502  0.000000000E+00  0.000000000E+00 -6.257556550E+02  6.257556550E+02  0.000000000E+00  0.00000E+00  9.000E+00
      25     1     1     2     0     0 -1.303962864E+02  8.718085101E+00 -5.516164490E+02  5.805040080E+02  1.250000000E+02  0.00000E+00  9.000E+00
      25     1     1     2     0     0  1.375942998E+02 -7.170941805E+00  8.751000976E+01  2.055884616E+02  1.250000000E+02  0.00000E+00  9.000E+00
      21     1     1     2   512   502 -7.198013417E+00 -1.547143296E+00  1.999489664E+01  2.130729784E+01  5.840038640E-07  0.00000E+00  9.000E+00
#rwgt            1           1   4.1972808650691133E-002           5      152547           0
</event>
<event>
      5   9999  3.79277E-02  1.17682E+02 -1.00000E+00  1.20729E-01
      21    -1     0     0   502   501  0.000000000E+00  0.000000000E+00  6.894639051E+02  6.894639051E+02  0.000000000E+00  0.00000E+00  9.000E+00
      21    -1     0     0   511   502  0.000000000E+00  0.000000000E+00 -1.624832099E+02  1.624832099E+02  0.000000000E+00  0.00000E+00  9.000E+00
      25     1     1     2     0     0 -6.414259016E+01 -1.325406316E+02  1.376936859E+01  1.936385458E+02  1.250000000E+02  0.00000E+00  9.000E+00
      25     1     1     2     0     0  1.744759349E+02  1.734746162E+02  4.410182399E+02  5.202474240E+02  1.250000000E+02  0.00000E+00  9.000E+00
      21     1     1     2   511   501 -1.103333447E+02 -4.093398462E+01  7.219308668E+01  1.380611452E+02  1.651812370E-06  0.00000E+00  9.000E+00
#rwgt            1           1   1.7378544148907410E-002           5      152930           0
</event>
<event>
      5   9999  3.79277E-02  5.79262E+01 -1.00000E+00  1.35525E-01
      21    -1     0     0   512   501  0.000000000E+00  0.000000000E+00  2.620093984E+02  2.620093984E+02  0.000000000E+00  0.00000E+00  9.000E+00
      21    -1     0     0   501   502  0.000000000E+00  0.000000000E+00 -3.371623929E+02  3.371623929E+02  0.000000000E+00  0.00000E+00  9.000E+00
      25     1     1     2     0     0 -6.987885762E+01  1.682194992E+02 -1.976169199E+02  2.964090108E+02  1.250000000E+02  0.00000E+00  9.000E+00
      25     1     1     2     0     0  1.236901982E+01 -1.612871038E+02  5.085912312E+01  2.106612753E+02  1.250000000E+02  0.00000E+00  9.000E+00
      21     1     1     2   512   502  5.750983780E+01 -6.932395395E+00  7.160480232E+01  9.210150523E+01  0.000000000E+00  0.00000E+00  9.000E+00
#rwgt            1           1   3.3254833255801385E-002           5      153582           0
</event>
<event>
      5   9999  3.79277E-02  2.08541E+02 -1.00000E+00  1.10991E-01
      21    -1     0     0   502   501  0.000000000E+00  0.000000000E+00  2.370193174E+02  2.370193174E+02  0.000000000E+00  0.00000E+00  9.000E+00
      21    -1     0     0   511   502  0.000000000E+00  0.000000000E+00 -5.303837418E+02  5.303837418E+02  0.000000000E+00  0.00000E+00  9.000E+00
      25     1     1     2     0     0 -1.840377666E+02 -1.232951279E+02 -1.897508988E+02  3.173357712E+02  1.250000000E+02  0.00000E+00  9.000E+00
      25     1     1     2     0     0  1.670463197E+01 -1.159150759E+00  9.821879895E+01  1.598509331E+02  1.250000000E+02  0.00000E+00  9.000E+00
      21     1     1     2   511   501  1.673331346E+02  1.244542787E+02 -2.018323246E+02  2.902163549E+02  3.814697266E-06  0.00000E+00  9.000E+00
#rwgt            1           1   2.6406825267553329E-002           5      153692           0
</event>
<event>
      5   9999  3.79277E-02  3.34004E+01 -1.00000E+00  1.49870E-01
      21    -1     0     0   502   501  0.000000000E+00  0.000000000E+00  1.728933000E+02  1.728933000E+02  0.000000000E+00  0.00000E+00  9.000E+00
       2    -1     0     0   501     0  0.000000000E+00  0.000000000E+00 -1.026362405E+03  1.026362405E+03  0.000000000E+00  0.00000E+00  9.000E+00
      25     1     1     2     0     0 -1.773351001E+02  4.196400999E+01  5.452508641E+01  2.276108541E+02  1.250000000E+02  0.00000E+00  9.000E+00
      25     1     1     2     0     0  1.801032626E+02 -8.678551445E+00 -3.528745292E+02  4.155212820E+02  1.250000000E+02  0.00000E+00  9.000E+00
       2     1     1     2   502     0 -2.768162536E+00 -3.328545855E+01 -5.551196626E+02  5.561235693E+02  0.000000000E+00  0.00000E+00  9.000E+00
#rwgt            1           1   4.0715440561023622E-002           5      153810           0
</event>
<event>
      5   9999  3.79277E-02  3.62546E+01 -1.00000E+00  1.47539E-01
      21    -1     0     0   502   501  0.000000000E+00  0.000000000E+00  7.766345387E+01  7.766345387E+01  0.000000000E+00  0.00000E+00  9.000E+00
      21    -1     0     0   501   511  0.000000000E+00  0.000000000E+00 -1.042544443E+03  1.042544443E+03  0.000000000E+00  0.00000E+00  9.000E+00
      25     1     1     2     0     0 -1.863303812E+02 -1.072570748E+02 -3.626230506E+02  4.397085033E+02  1.250000000E+02  0.00000E+00  9.000E+00
      25     1     1     2     0     0  2.190466109E+02  1.228790586E+02 -5.322293408E+02  6.016425450E+02  1.250000000E+02  0.00000E+00  9.000E+00
      21     1     1     2   502   511 -3.271622971E+01 -1.562198373E+01 -7.002859806E+01  7.885684883E+01  0.000000000E+00  0.00000E+00  9.000E+00
#rwgt            1           1   3.6069461540075266E-002           5      153942           0
</event>
<event>
      5   9999  3.79277E-02  1.23122E+01 -1.00000E+00  1.85863E-01
      21    -1     0     0   512   501  0.000000000E+00  0.000000000E+00  3.153420169E+02  3.153420169E+02  0.000000000E+00  0.00000E+00  9.000E+00
      21    -1     0     0   501   502  0.000000000E+00  0.000000000E+00 -3.671732678E+02  3.671732678E+02  0.000000000E+00  0.00000E+00  9.000E+00
      25     1     1     2     0     0  1.609337296E+02 -4.273756972E+01  2.294375271E+02  3.098269582E+02  1.250000000E+02  0.00000E+00  9.000E+00
      25     1     1     2     0     0 -1.657668857E+02  5.406152054E+01 -2.876317254E+02  3.588290928E+02  1.250000000E+02  0.00000E+00  9.000E+00
      21     1     1     2   512   502  4.833156020E+00 -1.132395082E+01  6.362947408E+00  1.385923371E+01  1.884864366E-07  0.00000E+00  9.000E+00
#rwgt            1           1   6.7147443026575838E-003           5      154114           0
</event>
<event>
      5   9999  3.79277E-02  3.96934E+01 -1.00000E+00  1.45048E-01
      21    -1     0     0   502   501  0.000000000E+00  0.000000000E+00  5.794731562E+02  5.794731562E+02  0.000000000E+00  0.00000E+00  9.000E+00
      21    -1     0     0   511   502  0.000000000E+00  0.000000000E+00 -1.833433418E+03  1.833433418E+03  0.000000000E+00  0.00000E+00  9.000E+00
      25     1     1     2     0     0 -9.233668567E+01 -7.212112196E+01  1.874158639E+02  2.539236614E+02  1.250000000E+02  0.00000E+00  9.000E+00
      25     1     1     2     0     0  1.318360575E+02  7.604053907E+01  3.315386277E+02  3.856238728E+02  1.250000000E+02  0.00000E+00  9.000E+00
      21     1     1     2   511   501 -3.949937178E+01 -3.919417106E+00 -1.772914754E+03  1.773359040E+03  2.157918644E-05  0.00000E+00  9.000E+00
#rwgt            1           1   3.4794861663743293E-002           5      154358           0
</event>
<event>
      5   9999  3.79277E-02  7.95772E+01 -1.00000E+00  1.28461E-01
      21    -1     0     0   502   501  0.000000000E+00  0.000000000E+00  1.012851431E+02  1.012851431E+02  0.000000000E+00  0.00000E+00  9.000E+00
      21    -1     0     0   512   502  0.000000000E+00  0.000000000E+00 -9.718637977E+02  9.718637977E+02  0.000000000E+00  0.00000E+00  9.000E+00
      25     1     1     2     0     0 -5.132678182E-01  5.890192608E+01 -6.420298669E+02  6.567320993E+02  1.250000000E+02  0.00000E+00  9.000E+00
      25     1     1     2     0     0  4.362477149E+01 -1.257893293E+02 -8.947415420E+00  1.828418232E+02  1.250000000E+02  0.00000E+00  9.000E+00
      21     1     1     2   512   501 -4.311150367E+01  6.688740325E+01 -2.196013723E+02  2.335750183E+02  0.000000000E+00  0.00000E+00  9.000E+00
#rwgt            2          11   2.2843247234820931E-003           5      154585           0
</event>
<event>
      5   9999  3.79277E-02  1.27391E+01 -1.00000E+00  1.84340E-01
      21    -1     0     0   502   501  0.000000000E+00  0.000000000E+00  6.693121064E+02  6.693121064E+02  0.000000000E+00  0.00000E+00  9.000E+00
      21    -1     0     0   501   511  0.000000000E+00  0.000000000E+00 -9.239567269E+01  9.239567269E+01  0.000000000E+00  0.00000E+00  9.000E+00
      25     1     1     2     0     0  3.720065641E+01  1.148568766E+02  2.032463226E+01  1.749688019E+02  1.250000000E+02  0.00000E+00  9.000E+00
      25     1     1     2     0     0 -2.859667379E+01 -1.054624138E+02  5.442161911E+02  5.689783415E+02  1.250000000E+02  0.00000E+00  9.000E+00
      21     1     1     2   502   511 -8.603982615E+00 -9.394462843E+00  1.237561037E+01  1.776063571E+01  1.685873940E-07  0.00000E+00  9.000E+00
#rwgt            1           1   4.1671686474115018E-002           5      154605           0
</event>
<event>
      5   9999  3.79277E-02  3.83726E+01 -1.00000E+00  1.45968E-01
      21    -1     0     0   502   512  0.000000000E+00  0.000000000E+00  9.832876507E+02  9.832876507E+02  0.000000000E+00  0.00000E+00  9.000E+00
      21    -1     0     0   501   502  0.000000000E+00  0.000000000E+00 -2.906506416E+02  2.906506416E+02  0.000000000E+00  0.00000E+00  9.000E+00
      25     1     1     2     0     0  2.326633999E+02 -7.567550098E+00  2.349147942E+02  3.535526637E+02  1.250000000E+02  0.00000E+00  9.000E+00
      25     1     1     2     0     0 -1.972341705E+02 -7.171071809E+00 -1.716158263E+02  2.898788266E+02  1.250000000E+02  0.00000E+00  9.000E+00
      21     1     1     2   501   512 -3.542922939E+01  1.473862191E+01  6.293380412E+02  6.305068020E+02  0.000000000E+00  0.00000E+00  9.000E+00
#rwgt            1           1   4.1491446398064714E-002           5      154835           0
</event>
<event>
      5   9999  3.79277E-02  3.49111E+01 -1.00000E+00  1.48603E-01
      21    -1     0     0   511   501  0.000000000E+00  0.000000000E+00  7.916345633E+02  7.916345633E+02  0.000000000E+00  0.00000E+00  9.000E+00
      21    -1     0     0   501   502  0.000000000E+00  0.000000000E+00 -7.558625157E+01  7.558625157E+01  0.000000000E+00  0.00000E+00  9.000E+00
      25     1     1     2     0     0  1.020531875E+02 -1.185591819E+02  1.572993863E+02  2.546354838E+02  1.250000000E+02  0.00000E+00  9.000E+00
      25     1     1     2     0     0 -1.348848747E+02  1.066904288E+02  4.377151222E+02  4.866172061E+02  1.250000000E+02  0.00000E+00  9.000E+00
      21     1     1     2   511   502  3.283168726E+01  1.186875314E+01  1.210338032E+02  1.259681250E+02  1.348699152E-06  0.00000E+00  9.000E+00
#rwgt            1           1   3.1192868060140787E-002           5      155238           0
</event>
<event>
      5   9999  3.79277E-02  1.99151E+01 -1.00000E+00  1.66522E-01
       1    -1     0     0   502     0  0.000000000E+00  0.000000000E+00  3.262704284E+03  3.262704284E+03  0.000000000E+00  0.00000E+00  9.000E+00
      21    -1     0     0   501   502  0.000000000E+00  0.000000000E+00 -5.648749173E+01  5.648749173E+01  0.000000000E+00  0.00000E+00  9.000E+00
      25     1     1     2     0     0 -1.524151045E+02  5.037235507E+01  8.491940728E+02  8.732258079E+02  1.250000000E+02  0.00000E+00  9.000E+00
      25     1     1     2     0     0  1.454459288E+02 -6.902819861E+01  1.893590584E+02  2.782108255E+02  1.250000000E+02  0.00000E+00  9.000E+00
       1     1     1     2   501     0  6.969175651E+00  1.865584354E+01  2.167663661E+03  2.167755142E+03  0.000000000E+00  0.00000E+00  9.000E+00
#rwgt            1           1   3.7017655636562737E-002           5      155416           0
</event>
<event>
      5   9999 -3.79277E-02  8.72646E+01 -1.00000E+00  1.26549E-01
      21    -1     0     0   502   511  0.000000000E+00  0.000000000E+00  5.762639112E+02  5.762639112E+02  0.000000000E+00  0.00000E+00  9.000E+00
      21    -1     0     0   501   502  0.000000000E+00  0.000000000E+00 -3.298235003E+02  3.298235003E+02  0.000000000E+00  0.00000E+00  9.000E+00
      25     1     1     2     0     0  2.011515408E+02 -2.398277709E+02  1.917592624E+02  3.877833374E+02  1.250000000E+02  0.00000E+00  9.000E+00
      25     1     1     2     0     0 -2.881795948E+02  2.334063906E+02 -3.532931634E+01  3.929366140E+02  1.250000000E+02  0.00000E+00  9.000E+00
      21     1     1     2   501   511  8.702805391E+01  6.421380299E+00  9.001046480E+01  1.253674602E+02  0.000000000E+00  0.00000E+00  9.000E+00
#rwgt            1           1 -0.24131233941807756                5      155623           0
</event>
<event>
      5   9999  3.79277E-02  2.45474E+02 -1.00000E+00  1.08502E-01
      21    -1     0     0   502   501  0.000000000E+00  0.000000000E+00  2.977026454E+02  2.977026454E+02  0.000000000E+00  0.00000E+00  9.000E+00
      21    -1     0     0   501   512  0.000000000E+00  0.000000000E+00 -6.292528350E+02  6.292528350E+02  0.000000000E+00  0.00000E+00  9.000E+00
      25     1     1     2     0     0  2.089161318E+01 -2.893204823E+02  1.102346883E+02  3.345437005E+02  1.250000000E+02  0.00000E+00  9.000E+00
      25     1     1     2     0     0 -2.919883042E+01  4.398727140E+01 -8.772438129E+01  1.615797599E+02  1.250000000E+02  0.00000E+00  9.000E+00
      21     1     1     2   502   512  8.307217242E+00  2.453332109E+02 -3.540604966E+02  4.308320201E+02  0.000000000E+00  0.00000E+00  9.000E+00
#rwgt            1           1   2.7575936999675209E-002           5      155751           0
</event>
<event>
      5   9999  3.79277E-02  2.71338E+01 -1.00000E+00  1.56132E-01
      21    -1     0     0   502   511  0.000000000E+00  0.000000000E+00  1.011831851E+02  1.011831851E+02  0.000000000E+00  0.00000E+00  9.000E+00
      21    -1     0     0   501   502  0.000000000E+00  0.000000000E+00 -4.630230012E+02  4.630230012E+02  0.000000000E+00  0.00000E+00  9.000E+00
      25     1     1     2     0     0 -1.313030975E+02 -4.839183343E+01 -1.229362774E+02  2.243225384E+02  1.250000000E+02  0.00000E+00  9.000E+00
      25     1     1     2     0     0  1.583916638E+02  4.682649278E+01 -2.336488334E+02  3.122457637E+02  1.250000000E+02  0.00000E+00  9.000E+00
      21     1     1     2   501   511 -2.708856629E+01  1.565340648E+00 -5.254705200E+00  2.763788417E+01  5.960464478E-07  0.00000E+00  9.000E+00
#rwgt            1           1   4.2973364471104121E-002           5      155806           0
</event>
<event>
      5   9999  3.79277E-02  1.56467E+01 -1.00000E+00  1.75674E-01
      21    -1     0     0   502   512  0.000000000E+00  0.000000000E+00  9.470741501E+01  9.470741501E+01  0.000000000E+00  0.00000E+00  9.000E+00
      21    -1     0     0   501   502  0.000000000E+00  0.000000000E+00 -7.496376986E+02  7.496376986E+02  0.000000000E+00  0.00000E+00  9.000E+00
      25     1     1     2     0     0 -7.966502981E+01  1.788299171E+02 -4.639062687E+02  5.188069799E+02  1.250000000E+02  0.00000E+00  9.000E+00
      25     1     1     2     0     0  7.712243178E+01 -1.942686520E+02 -1.916058884E+02  3.098806142E+02  1.250000000E+02  0.00000E+00  9.000E+00
      21     1     1     2   501   512  2.542598035E+00  1.543873485E+01  5.818735297E-01  1.565751945E+01  2.070135473E-07  0.00000E+00  9.000E+00
#rwgt            1           1   3.3612553610335383E-002           5      155993           0
</event>
<event>
      5   9999 -3.79277E-02  1.29180E+02 -1.00000E+00  1.19025E-01
       2    -1     0     0   502     0  0.000000000E+00  0.000000000E+00  8.891038905E+02  8.891038905E+02  0.000000000E+00  0.00000E+00  9.000E+00
      21    -1     0     0   501   502  0.000000000E+00  0.000000000E+00 -1.155641817E+03  1.155641817E+03  0.000000000E+00  0.00000E+00  9.000E+00
      25     1     1     2     0     0  1.030370254E+02 -4.008519208E+01 -1.014236808E+03  1.027873900E+03  1.250000000E+02  0.00000E+00  9.000E+00
      25     1     1     2     0     0  1.731474172E+01  8.702154352E+01 -8.427547287E+01  1.749282843E+02  1.250000000E+02  0.00000E+00  9.000E+00
       2     1     1     2   501     0 -1.203517671E+02 -4.693635143E+01  8.319743548E+02  8.419435230E+02  0.000000000E+00  0.00000E+00  9.000E+00
#rwgt            1           1  -2.5844378363193969E-002           5      156173           0
</event>
<event>
      5   9999  3.79277E-02  3.47058E+01 -1.00000E+00  1.48771E-01
      21    -1     0     0   502   501  0.000000000E+00  0.000000000E+00  6.864115157E+02  6.864115157E+02  0.000000000E+00  0.00000E+00  9.000E+00
      21    -1     0     0   511   502  0.000000000E+00  0.000000000E+00 -7.555136730E+01  7.555136730E+01  0.000000000E+00  0.00000E+00  9.000E+00
      25     1     1     2     0     0  9.083085030E+01  1.464180903E+02  3.627973085E+02  4.206368833E+02  1.250000000E+02  0.00000E+00  9.000E+00
      25     1     1     2     0     0 -1.033929629E+02 -1.140655296E+02  2.235742587E+02  2.988502952E+02  1.250000000E+02  0.00000E+00  9.000E+00
      21     1     1     2   511   501  1.256211264E+01 -3.235256073E+01  2.448858127E+01  4.247570449E+01  5.840038640E-07  0.00000E+00  9.000E+00
#rwgt            1           1   4.3477079074146392E-002           5      156220           0
</event>
<event>
      5   9999  3.79277E-02  5.59944E+01 -1.00000E+00  1.36327E-01
      21    -1     0     0   512   501  0.000000000E+00  0.000000000E+00  2.707968081E+02  2.707968081E+02  0.000000000E+00  0.00000E+00  9.000E+00
      21    -1     0     0   501   502  0.000000000E+00  0.000000000E+00 -2.037710483E+02  2.037710483E+02  0.000000000E+00  0.00000E+00  9.000E+00
      25     1     1     2     0     0 -2.840981404E+01 -7.385809285E+01 -1.304498638E+02  1.972417359E+02  1.250000000E+02  0.00000E+00  9.000E+00
      25     1     1     2     0     0  8.911294622E+00  2.136830329E+01  1.765342527E+02  2.175439218E+02  1.250000000E+02  0.00000E+00  9.000E+00
      21     1     1     2   512   502  1.949851942E+01  5.248978955E+01  2.094137087E+01  5.978219869E+01  1.118282261E-06  0.00000E+00  9.000E+00
#rwgt            1           1   4.1449404632561887E-002           5      156443           0
</event>
<event>
      5   9999  3.79277E-02  1.06455E+02 -1.00000E+00  1.22618E-01
      21    -1     0     0   511   501  0.000000000E+00  0.000000000E+00  2.066104151E+02  2.066104151E+02  0.000000000E+00  0.00000E+00  9.000E+00
      21    -1     0     0   501   502  0.000000000E+00  0.000000000E+00 -6.404403423E+02  6.404403423E+02  0.000000000E+00  0.00000E+00  9.000E+00
      25     1     1     2     0     0 -2.393713630E+02 -1.668647393E+01 -3.353462113E+02  4.308818507E+02  1.250000000E+02  0.00000E+00  9.000E+00
      25     1     1     2     0     0  1.669955880E+02  9.475301100E+01 -1.722646253E+02  2.866457057E+02  1.250000000E+02  0.00000E+00  9.000E+00
      21     1     1     2   511   502  7.237577499E+01 -7.806653707E+01  7.378090930E+01  1.295232010E+02  1.651812370E-06  0.00000E+00  9.000E+00
#rwgt            1           1   3.2694166676054882E-002           5      156556           0
</event>
<event>
      5   9999  3.79277E-02  1.28413E+01 -1.00000E+00  1.83986E-01
      21    -1     0     0   502   512  0.000000000E+00  0.000000000E+00  4.610092737E+02  4.610092737E+02  0.000000000E+00  0.00000E+00  9.000E+00
      21    -1     0     0   501   502  0.000000000E+00  0.000000000E+00 -6.349816987E+01  6.349816987E+01  0.000000000E+00  0.00000E+00  9.000E+00
      25     1     1     2     0     0  8.829474058E+00 -8.659642628E+01  9.496848906E+01  1.795018512E+02  1.250000000E+02  0.00000E+00  9.000E+00
      25     1     1     2     0     0  3.991060446E+00  8.732626307E+01  2.851749782E+02  3.234062043E+02  1.250000000E+02  0.00000E+00  9.000E+00
      21     1     1     2   501   512 -1.282053450E+01 -7.298367852E-01  1.736763650E+01  2.159938806E+01  0.000000000E+00  0.00000E+00  9.000E+00
#rwgt            1           1   4.5554035681810608E-002           5      156670           0
</event>
<event>
      5   9999  3.79277E-02  1.58411E+01 -1.00000E+00  1.75180E-01
      21    -1     0     0   511   501  0.000000000E+00  0.000000000E+00  1.662925889E+01  1.662925889E+01  0.000000000E+00  0.00000E+00  9.000E+00
      21    -1     0     0   501   502  0.000000000E+00  0.000000000E+00 -2.386308503E+03  2.386308503E+03  0.000000000E+00  0.00000E+00  9.000E+00
      25     1     1     2     0     0 -8.919803109E+01 -1.875225993E+00 -5.670770262E+02  5.875041777E+02  1.250000000E+02  0.00000E+00  9.000E+00
      25     1     1     2     0     0  7.787167432E+01  1.295009547E+01 -1.787315375E+03  1.793419346E+03  1.250000000E+02  0.00000E+00  9.000E+00
      21     1     1     2   511   502  1.132635677E+01 -1.107486948E+01 -1.528684276E+01  2.201423751E+01  1.130918620E-06  0.00000E+00  9.000E+00
#rwgt            1           1   5.9773681419140592E-002           5      156947           0
</event>
<event>
      5   9999  3.79277E-02  3.09548E+01 -1.00000E+00  1.52101E-01
      21    -1     0     0   502   501  0.000000000E+00  0.000000000E+00  5.631790565E+02  5.631790565E+02  0.000000000E+00  0.00000E+00  9.000E+00
      21    -1     0     0   512   502  0.000000000E+00  0.000000000E+00 -2.113323796E+02  2.113323796E+02  0.000000000E+00  0.00000E+00  9.000E+00
      25     1     1     2     0     0  2.737688025E+02  3.953077926E+01  2.575766606E+02  3.980989523E+02  1.250000000E+02  0.00000E+00  9.000E+00
      25     1     1     2     0     0 -3.039373034E+02 -4.646326029E+01  9.569111045E+01  3.454251114E+02  1.250000000E+02  0.00000E+00  9.000E+00
      21     1     1     2   512   501  3.016850094E+01  6.932481032E+00 -1.421094187E+00  3.098737244E+01  3.680315326E-07  0.00000E+00  9.000E+00
#rwgt            1           1   3.2157990545212546E-002           5      157197           0
</event>
<event>
      5   9999  3.79277E-02  1.76276E+01 -1.00000E+00  1.71024E-01
      21    -1     0     0   502   501  0.000000000E+00  0.000000000E+00  3.447490297E+02  3.447490297E+02  0.000000000E+00  0.00000E+00  9.000E+00
      21    -1     0     0   501   511  0.000000000E+00  0.000000000E+00 -2.274365640E+02  2.274365640E+02  0.000000000E+00  0.00000E+00  9.000E+00
      25     1     1     2     0     0  1.667252053E+02  1.007821821E+02  1.479291841E+02  2.747041788E+02  1.250000000E+02  0.00000E+00  9.000E+00
      25     1     1     2     0     0 -1.841036711E+02 -1.037352982E+02  1.759332181E+01  2.461497487E+02  1.250000000E+02  0.00000E+00  9.000E+00
      21     1     1     2   502   511  1.737846580E+01  2.953116063E+00 -4.821004033E+01  5.133166622E+01  9.536743164E-07  0.00000E+00  9.000E+00
#rwgt            1           1   6.1001253401562469E-002           5      157344           0
</event>
<event>
      5   9999  3.79277E-02  2.30348E+01 -1.00000E+00  1.61461E-01
      21    -1     0     0   502   501  0.000000000E+00  0.000000000E+00  8.948750863E+01  8.948750863E+01  0.000000000E+00  0.00000E+00  9.000E+00
      21    -1     0     0   512   502  0.000000000E+00  0.000000000E+00 -7.658911640E+02  7.658911640E+02  0.000000000E+00  0.00000E+00  9.000E+00
      25     1     1     2     0     0 -1.671561294E+01  1.823802027E+02 -1.173156748E+02  2.508583616E+02  1.250000000E+02  0.00000E+00  9.000E+00
      25     1     1     2     0     0  3.239780210E+00 -1.636985903E+02 -5.172797598E+02  5.567863814E+02  1.250000000E+02  0.00000E+00  9.000E+00
      21     1     1     2   512   501  1.347583273E+01 -1.868161238E+01 -4.180822084E+01  4.773392964E+01  4.768371582E-07  0.00000E+00  9.000E+00
#rwgt            1           1   5.5949591531184985E-002           5      157595           0
</event>
<event>
      5   9999  3.79277E-02  1.30609E+02 -1.00000E+00  1.18827E-01
      -3    -1     0     0     0   501  0.000000000E+00  0.000000000E+00  6.723205349E+02  6.723205349E+02  0.000000000E+00  0.00000E+00  9.000E+00
      21    -1     0     0   501   502  0.000000000E+00  0.000000000E+00 -3.269007171E+02  3.269007171E+02  0.000000000E+00  0.00000E+00  9.000E+00
      25     1     1     2     0     0  3.338133113E+02  1.045867882E+02 -3.713495854E+01  3.733279098E+02  1.250000000E+02  0.00000E+00  9.000E+00
      25     1     1     2     0     0 -2.931947365E+02  1.954513977E+01  1.364098710E+02  3.472431697E+02  1.250000000E+02  0.00000E+00  9.000E+00
      -3     1     1     2     0   502 -4.061857479E+01 -1.241319280E+02  2.461449054E+02  2.786501724E+02  4.672030912E-06  0.00000E+00  9.000E+00
#rwgt            1           1   2.2810733690336329E-002           5      157743           0
</event>
<event>
      5   9999  3.79277E-02  4.27957E+01 -1.00000E+00  1.43044E-01
      21    -1     0     0   502   501  0.000000000E+00  0.000000000E+00  1.357709166E+03  1.357709166E+03  0.000000000E+00  0.00000E+00  9.000E+00
      21    -1     0     0   511   502  0.000000000E+00  0.000000000E+00 -2.064606942E+02  2.064606942E+02  0.000000000E+00  0.00000E+00  9.000E+00
      25     1     1     2     0     0  1.078803431E+02  2.641572714E+02  5.918804226E+02  6.688532478E+02  1.250000000E+02  0.00000E+00  9.000E+00
      25     1     1     2     0     0 -6.568742623E+01 -2.569999078E+02  6.943402675E+02  7.537222284E+02  1.250000000E+02  0.00000E+00  9.000E+00
      21     1     1     2   511   501 -4.219291688E+01 -7.157363588E+00 -1.349722179E+02  1.415943844E+02  1.907348633E-06  0.00000E+00  9.000E+00
#rwgt            1           1   3.9536303292115632E-002           5      157905           0
</event>
<event>
      5   9999  3.79277E-02  2.69994E+01 -1.00000E+00  1.56288E-01
      -1    -1     0     0     0   501  0.000000000E+00  0.000000000E+00  5.631214897E+02  5.631214897E+02  0.000000000E+00  0.00000E+00  9.000E+00
      21    -1     0     0   501   502  0.000000000E+00  0.000000000E+00 -6.824253746E+01  6.824253746E+01  0.000000000E+00  0.00000E+00  9.000E+00
      25     1     1     2     0     0  2.331152035E+01 -6.278824241E+01  4.008035900E+02  4.251521000E+02  1.250000000E+02  0.00000E+00  9.000E+00
      25     1     1     2     0     0 -1.953567713E+01  3.605420775E+01  2.753848967E+01  1.344057923E+02  1.250000000E+02  0.00000E+00  9.000E+00
      -1     1     1     2     0   502 -3.775843223E+00  2.673403465E+01  6.653687250E+01  7.180613486E+01  1.348699152E-06  0.00000E+00  9.000E+00
#rwgt            1           1   5.1598508881646167E-002           5      158069           0
</event>
<event>
      5   9999  3.79277E-02  1.22046E+02 -1.00000E+00  1.20057E-01
      21    -1     0     0   502   501  0.000000000E+00  0.000000000E+00  7.230372991E+02  7.230372991E+02  0.000000000E+00  0.00000E+00  9.000E+00
      21    -1     0     0   501   511  0.000000000E+00  0.000000000E+00 -3.792118679E+02  3.792118679E+02  0.000000000E+00  0.00000E+00  9.000E+00
      25     1     1     2     0     0 -2.444125931E+02 -7.889964550E+01  5.623706603E+01  2.911190089E+02  1.250000000E+02  0.00000E+00  9.000E+00
      25     1     1     2     0     0  1.920162531E+02 -3.132703005E+01  5.085748604E+02  5.586814950E+02  1.250000000E+02  0.00000E+00  9.000E+00
      21     1     1     2   502   511  5.239633998E+01  1.102266756E+02 -2.209864952E+02  2.524486631E+02  0.000000000E+00  0.00000E+00  9.000E+00
#rwgt            1           1   3.7047128327823316E-002           5      158208           0
</event>
<event>
      5   9999  3.79277E-02  6.18868E+01 -1.00000E+00  1.33989E-01
      21    -1     0     0   512   501  0.000000000E+00  0.000000000E+00  6.009766109E+02  6.009766109E+02  0.000000000E+00  0.00000E+00  9.000E+00
      21    -1     0     0   501   502  0.000000000E+00  0.000000000E+00 -4.980781272E+02  4.980781272E+02  0.000000000E+00  0.00000E+00  9.000E+00
      25     1     1     2     0     0  3.032699382E+02 -1.710658994E+02 -1.330215510E+02  3.931360202E+02  1.250000000E+02  0.00000E+00  9.000E+00
      25     1     1     2     0     0 -3.590478571E+02  1.978764057E+02 -3.309882812E+01  4.298731999E+02  1.250000000E+02  0.00000E+00  9.000E+00
      21     1     1     2   512   502  5.577791884E+01 -2.681050627E+01  2.690188628E+02  2.760455180E+02  5.394796609E-06  0.00000E+00  9.000E+00
#rwgt            1           1   4.2989421802933275E-002           5      158365           0
</event>
<event>
      5   9999  3.79277E-02  4.77540E+01 -1.00000E+00  1.40224E-01
      21    -1     0     0   502   501  0.000000000E+00  0.000000000E+00  3.522616185E+02  3.522616185E+02  0.000000000E+00  0.00000E+00  9.000E+00
      21    -1     0     0   511   502  0.000000000E+00  0.000000000E+00 -3.202709117E+02  3.202709117E+02  0.000000000E+00  0.00000E+00  9.000E+00
      25     1     1     2     0     0 -1.532649334E+02 -9.305231472E+01  7.062066558E+01  2.296979571E+02  1.250000000E+02  0.00000E+00  9.000E+00
      25     1     1     2     0     0  1.723235304E+02  1.368383154E+02  1.178963806E+02  2.791857451E+02  1.250000000E+02  0.00000E+00  9.000E+00
      21     1     1     2   511   501 -1.905859699E+01 -4.378600068E+01 -1.565263394E+02  1.636488280E+02  2.697398305E-06  0.00000E+00  9.000E+00
#rwgt            1           1   4.6614823461624155E-002           5      158531           0
</event>
<event>
      5   9999  3.79277E-02  8.33118E+01 -1.00000E+00  1.27503E-01
      21    -1     0     0   512   501  0.000000000E+00  0.000000000E+00  8.082216229E+02  8.082216229E+02  0.000000000E+00  0.00000E+00  9.000E+00
      21    -1     0     0   501   502  0.000000000E+00  0.000000000E+00 -1.814584830E+03  1.814584830E+03  0.000000000E+00  0.00000E+00  9.000E+00
      25     1     1     2     0     0 -1.079560649E+02 -1.102549014E+02 -4.236211411E+02  4.678573783E+02  1.250000000E+02  0.00000E+00  9.000E+00
      25     1     1     2     0     0  8.389200744E+01  1.900157022E+02 -1.355856739E+03  1.377358462E+03  1.250000000E+02  0.00000E+00  9.000E+00
      21     1     1     2   512   502  2.406405743E+01 -7.976080080E+01  7.731146727E+02  7.775906129E+02  1.078959322E-05  0.00000E+00  9.000E+00
#rwgt            1           1   2.8338719197030935E-002           5      158620           0
</event>
<event>
      5   9999  3.79277E-02  2.39488E+01 -1.00000E+00  1.60161E-01
      21    -1     0     0   502   501  0.000000000E+00  0.000000000E+00  4.884509069E+02  4.884509069E+02  0.000000000E+00  0.00000E+00  9.000E+00
      21    -1     0     0   511   502  0.000000000E+00  0.000000000E+00 -1.134030232E+02  1.134030232E+02  0.000000000E+00  0.00000E+00  9.000E+00
      25     1     1     2     0     0 -2.125328176E+01  1.581183092E+01 -5.402203228E+01  1.387266952E+02  1.250000000E+02  0.00000E+00  9.000E+00
      25     1     1     2     0     0  1.784325091E+01  7.892940275E+00  4.180328429E+02  4.367575275E+02  1.250000000E+02  0.00000E+00  9.000E+00
      21     1     1     2   511   501  3.410030848E+00 -2.370477119E+01  1.103707306E+01  2.636970742E+01  1.192092896E-07  0.00000E+00  9.000E+00
#rwgt            1           1   5.2003634566929975E-002           5      158678           0
</event>
<event>
      5   9999 -3.79277E-02  6.57632E+01 -1.00000E+00  1.32609E-01
      21    -1     0     0   502   501  0.000000000E+00  0.000000000E+00  4.053689736E+02  4.053689736E+02  0.000000000E+00  0.00000E+00  9.000E+00
      21    -1     0     0   512   502  0.000000000E+00  0.000000000E+00 -2.138150875E+02  2.138150875E+02  0.000000000E+00  0.00000E+00  9.000E+00
      25     1     1     2     0     0 -1.555665980E+02 -6.297007462E+01  1.898861944E+02  2.825738196E+02  1.250000000E+02  0.00000E+00  9.000E+00
      25     1     1     2     0     0  1.699421508E+02  1.271428659E+02  5.447869099E+01  2.522668641E+02  1.250000000E+02  0.00000E+00  9.000E+00
      21     1     1     2   512   501 -1.437555280E+01 -6.417279125E+01 -5.281099927E+01  8.434337733E+01  1.168007728E-06  0.00000E+00  9.000E+00
#rwgt            1           1 -0.10840479486545085                5      158829           0
</event>
<event>
      5   9999  3.79277E-02  1.72768E+01 -1.00000E+00  1.71791E-01
      -2    -1     0     0     0   501  0.000000000E+00  0.000000000E+00  1.053238509E+03  1.053238509E+03  0.000000000E+00  0.00000E+00  9.000E+00
      21    -1     0     0   501   502  0.000000000E+00  0.000000000E+00 -1.235532365E+02  1.235532365E+02  0.000000000E+00  0.00000E+00  9.000E+00
      25     1     1     2     0     0 -1.180441057E+02 -1.673239676E+02  2.278922663E+02  3.308951587E+02  1.250000000E+02  0.00000E+00  9.000E+00
      25     1     1     2     0     0  1.249073427E+02  1.514688935E+02  1.163626029E+02  2.602113090E+02  1.250000000E+02  0.00000E+00  9.000E+00
      -2     1     1     2     0   502 -6.863237067E+00  1.585507411E+01  5.854304038E+02  5.856852782E+02  7.629394531E-06  0.00000E+00  9.000E+00
#rwgt            1           1   3.5000187457320288E-002           5      158902           0
</event>
<event>
      5   9999  3.79277E-02  2.90335E+01 -1.00000E+00  1.54034E-01
       2    -1     0     0   502     0  0.000000000E+00  0.000000000E+00  1.073594626E+03  1.073594626E+03  0.000000000E+00  0.00000E+00  9.000E+00
      21    -1     0     0   501   502  0.000000000E+00  0.000000000E+00 -2.109969548E+02  2.109969548E+02  0.000000000E+00  0.00000E+00  9.000E+00
      25     1     1     2     0     0 -1.740052154E+02 -2.171105618E+01  5.040001998E+02  5.480788140E+02  1.250000000E+02  0.00000E+00  9.000E+00
      25     1     1     2     0     0  1.530019814E+02  4.175626907E+01 -1.344569039E+02  2.426043102E+02  1.250000000E+02  0.00000E+00  9.000E+00
       2     1     1     2   501     0  2.100323406E+01 -2.004521289E+01  4.930543750E+02  4.939084562E+02  1.078959322E-05  0.00000E+00  9.000E+00
#rwgt            2          18   1.4710227488612032E-004           5      159078           0
</event>
<event>
      5   9999  3.79277E-02  1.90785E+01 -1.00000E+00  1.68077E-01
      21    -1     0     0   502   501  0.000000000E+00  0.000000000E+00  1.551880442E+01  1.551880442E+01  0.000000000E+00  0.00000E+00  9.000E+00
      21    -1     0     0   511   502  0.000000000E+00  0.000000000E+00 -2.683430255E+03  2.683430255E+03  0.000000000E+00  0.00000E+00  9.000E+00
      25     1     1     2     0     0 -6.280463794E+01 -1.072295211E+02 -7.681135817E+02  7.880774500E+02  1.250000000E+02  0.00000E+00  9.000E+00
      25     1     1     2     0     0  5.601787097E+01  1.250601099E+02 -1.664819964E+03  1.675120457E+03  1.250000000E+02  0.00000E+00  9.000E+00
      21     1     1     2   511   501  6.786766961E+00 -1.783058875E+01 -2.349779045E+02  2.357511520E+02  0.000000000E+00  0.00000E+00  9.000E+00
#rwgt            1           1  0.14414598304856149                5      159217           0
</event>
<event>
      5   9999  3.79277E-02  1.13846E+01 -1.00000E+00  1.89464E-01
      21    -1     0     0   502   501  0.000000000E+00  0.000000000E+00  5.637755570E+01  5.637755570E+01  0.000000000E+00  0.00000E+00  9.000E+00
      21    -1     0     0   512   502  0.000000000E+00  0.000000000E+00 -1.025688282E+03  1.025688282E+03  0.000000000E+00  0.00000E+00  9.000E+00
      25     1     1     2     0     0  1.876257550E+02  5.937859139E+01 -4.887443573E+02  5.415028050E+02  1.250000000E+02  0.00000E+00  9.000E+00
      25     1     1     2     0     0 -1.813810486E+02 -4.985953202E+01 -4.013632329E+02  4.605458744E+02  1.250000000E+02  0.00000E+00  9.000E+00
      21     1     1     2   512   501 -6.244706379E+00 -9.519059373E+00 -7.920313604E+01  8.001715821E+01  9.536743164E-07  0.00000E+00  9.000E+00
#rwgt            1           1   3.1538574495075924E-002           5      159478           0
</event>
<event>
      5   9999  3.79277E-02  1.54546E+01 -1.00000E+00  1.76171E-01
      21    -1     0     0   502   501  0.000000000E+00  0.000000000E+00  2.062546072E+02  2.062546072E+02  0.000000000E+00  0.00000E+00  9.000E+00
      21    -1     0     0   511   502  0.000000000E+00  0.000000000E+00 -1.427506852E+02  1.427506852E+02  0.000000000E+00  0.00000E+00  9.000E+00
      25     1     1     2     0     0  7.797771000E+01 -1.666958890E+01  3.649099877E+01  1.526924734E+02  1.250000000E+02  0.00000E+00  9.000E+00
      25     1     1     2     0     0 -6.255206833E+01  1.572455404E+01  6.526032697E+01  1.550610626E+02  1.250000000E+02  0.00000E+00  9.000E+00
      21     1     1     2   511   501 -1.542564167E+01  9.450348528E-01 -3.824740370E+01  4.125175635E+01  0.000000000E+00  0.00000E+00  9.000E+00
#rwgt            1           1   4.2915660940367924E-002           5      159805           0
</event>
<event>
      5   9999  3.79277E-02  1.22467E+02 -1.00000E+00  1.19994E-01
      21    -1     0     0   502   501  0.000000000E+00  0.000000000E+00  2.161557988E+02  2.161557988E+02  0.000000000E+00  0.00000E+00  9.000E+00
       4    -1     0     0   501     0  0.000000000E+00  0.000000000E+00 -6.288364161E+02  6.288364161E+02  0.000000000E+00  0.00000E+00  9.000E+00
      25     1     1     2     0     0  1.479800807E+02  7.511491049E+01  9.570385610E+01  2.287456713E+02  1.250000000E+02  0.00000E+00  9.000E+00
      25     1     1     2     0     0 -6.522253887E+01  1.515876545E+01 -6.451360925E+01  1.557908005E+02  1.250000000E+02  0.00000E+00  9.000E+00
       4     1     1     2   502     0 -8.275754185E+01 -9.027367594E+01 -4.438708642E+02  4.604557431E+02  5.394796609E-06  0.00000E+00  9.000E+00
#rwgt            1           1   3.7400490464503965E-002           5      159996           0
</event>
<event>
      5   9999  3.79277E-02  5.32269E+01 -1.00000E+00  1.37543E-01
      21    -1     0     0   511   501  0.000000000E+00  0.000000000E+00  1.444928244E+02  1.444928244E+02  0.000000000E+00  0.00000E+00  9.000E+00
      21    -1     0     0   501   502  0.000000000E+00  0.000000000E+00 -4.807231164E+02  4.807231164E+02  0.000000000E+00  0.00000E+00  9.000E+00
      25     1     1     2     0     0  1.599960718E+02 -6.587397289E+00 -1.394935446E+02  2.464256192E+02  1.250000000E+02  0.00000E+00  9.000E+00
      25     1     1     2     0     0 -1.109556138E+02  2.727894934E+01 -2.509938841E+02  3.027841131E+02  1.250000000E+02  0.00000E+00  9.000E+00
      21     1     1     2   511   502 -4.904045806E+01 -2.069155205E+01  5.425713673E+01  7.600620855E+01  6.743495762E-07  0.00000E+00  9.000E+00
#rwgt            1           1   3.5203490906688097E-002           5      160056           0
</event>
<event>
      5   9999  3.79277E-02  3.95132E+01 -1.00000E+00  1.45171E-01
      21    -1     0     0   502   512  0.000000000E+00  0.000000000E+00  1.017339942E+03  1.017339942E+03  0.000000000E+00  0.00000E+00  9.000E+00
      21    -1     0     0   501   502  0.000000000E+00  0.000000000E+00 -6.093233120E+02  6.093233120E+02  0.000000000E+00  0.00000E+00  9.000E+00
      25     1     1     2     0     0  1.309674322E+02  2.309750490E+02 -4.366629772E+02  5.261192804E+02  1.250000000E+02  0.00000E+00  9.000E+00
      25     1     1     2     0     0 -1.158968866E+02 -1.944486983E+02  3.676780995E+00  2.586134245E+02  1.250000000E+02  0.00000E+00  9.000E+00
      21     1     1     2   501   512 -1.507054555E+01 -3.652635070E+01  8.410028260E+02  8.419305488E+02  0.000000000E+00  0.00000E+00  9.000E+00
#rwgt            1           1   3.5337908524462613E-002           5      160209           0
</event>
<event>
      5   9999  3.79277E-02  5.60007E+01 -1.00000E+00  1.36324E-01
      21    -1     0     0   502   501  0.000000000E+00  0.000000000E+00  4.305810895E+02  4.305810895E+02  0.000000000E+00  0.00000E+00  9.000E+00
      21    -1     0     0   501   511  0.000000000E+00  0.000000000E+00 -4.004288283E+02  4.004288283E+02  0.000000000E+00  0.00000E+00  9.000E+00
      25     1     1     2     0     0 -1.162811228E+02 -1.461429847E+02 -2.104635582E+02  3.078944313E+02  1.250000000E+02  0.00000E+00  9.000E+00
      25     1     1     2     0     0  6.289691610E+01  1.630606292E+02  3.439683192E+02  4.055662652E+02  1.250000000E+02  0.00000E+00  9.000E+00
      21     1     1     2   502   511  5.338420672E+01 -1.691764447E+01 -1.033524997E+02  1.175492213E+02  0.000000000E+00  0.00000E+00  9.000E+00
#rwgt            1           1   2.4428888584647403E-002           5      160419           0
</event>
<event>
      5   9999  3.79277E-02  5.04209E+01 -1.00000E+00  1.38868E-01
      21    -1     0     0   502   501  0.000000000E+00  0.000000000E+00  1.335301702E+03  1.335301702E+03  0.000000000E+00  0.00000E+00  9.000E+00
      21    -1     0     0   501   512  0.000000000E+00  0.000000000E+00 -5.576336698E+01  5.576336698E+01  0.000000000E+00  0.00000E+00  9.000E+00
      25     1     1     2     0     0  2.916246231E+01  1.684156337E+02  3.200510679E+02  3.837602910E+02  1.250000000E+02  0.00000E+00  9.000E+00
      25     1     1     2     0     0 -7.664689659E+01 -1.853713421E+02  8.936578167E+02  9.243844301E+02  1.250000000E+02  0.00000E+00  9.000E+00
      21     1     1     2   502   512  4.748443428E+01  1.695570839E+01  6.582945039E+01  8.292034784E+01  9.536743164E-07  0.00000E+00  9.000E+00
#rwgt            1           1   3.6753796987838566E-002           5      160483           0
</event>
<event>
      5   9999  3.79277E-02  4.55036E+01 -1.00000E+00  1.41451E-01
      21    -1     0     0   502   501  0.000000000E+00  0.000000000E+00  2.316624911E+02  2.316624911E+02  0.000000000E+00  0.00000E+00  9.000E+00
      21    -1     0     0   511   502  0.000000000E+00  0.000000000E+00 -2.498232794E+02  2.498232794E+02  0.000000000E+00  0.00000E+00  9.000E+00
      25     1     1     2     0     0 -1.182155069E+02 -4.485912381E+01 -1.285729905E+01  1.782626074E+02  1.250000000E+02  0.00000E+00  9.000E+00
      25     1     1     2     0     0  1.159493861E+02  9.030622909E+01  7.815564967E+01  2.081652726E+02  1.250000000E+02  0.00000E+00  9.000E+00
      21     1     1     2   511   501  2.266120787E+00 -4.544710528E+01 -8.345913892E+01  9.505789053E+01  1.348699152E-06  0.00000E+00  9.000E+00
#rwgt            1           1   3.6242523756613819E-002           5      160658           0
</event>
<event>
      5   9999  3.79277E-02  4.60368E+01 -1.00000E+00  1.41153E-01
      21    -1     0     0   502   512  0.000000000E+00  0.000000000E+00  2.994440383E+02  2.994440383E+02  0.000000000E+00  0.00000E+00  9.000E+00
      21    -1     0     0   501   502  0.000000000E+00  0.000000000E+00 -2.068315553E+02  2.068315553E+02  0.000000000E+00  0.00000E+00  9.000E+00
      25     1     1     2     0     0 -3.219086020E+01  7.637711616E+01  1.362657122E+02  2.026402222E+02  1.250000000E+02  0.00000E+00  9.000E+00
      25     1     1     2     0     0  3.325212822E+01 -3.035250300E+01 -1.423565200E+02  1.947237974E+02  1.250000000E+02  0.00000E+00  9.000E+00
      21     1     1     2   501   512 -1.061268017E+00 -4.602461316E+01  9.870329087E+01  1.089115739E+02  1.348699152E-06  0.00000E+00  9.000E+00
#rwgt            1           1   3.9155797931816255E-002           5      160879           0
</event>
<event>
      5   9999  3.79277E-02  3.93335E+01 -1.00000E+00  1.45294E-01
      21    -1     0     0   511   501  0.000000000E+00  0.000000000E+00  1.963169374E+02  1.963169374E+02  0.000000000E+00  0.00000E+00  9.000E+00
      21    -1     0     0   501   502  0.000000000E+00  0.000000000E+00 -4.211132229E+02  4.211132229E+02  0.000000000E+00  0.00000E+00  9.000E+00
      25     1     1     2     0     0 -1.595463389E+02 -5.601282563E+01 -3.112787570E+02  3.756486862E+02  1.250000000E+02  0.00000E+00  9.000E+00
      25     1     1     2     0     0  1.202303748E+02  5.718639931E+01  8.735364365E+01  2.024383520E+02  1.250000000E+02  0.00000E+00  9.000E+00
      21     1     1     2   511   502  3.931596418E+01 -1.173573676E+00 -8.711721397E-01  3.934312209E+01  1.014209856E-06  0.00000E+00  9.000E+00
#rwgt            1           1   4.1335622575922618E-002           5      161082           0
</event>
<event>
      5   9999  3.79277E-02  1.01695E+01 -1.00000E+00  1.94917E-01
      21    -1     0     0   502   501  0.000000000E+00  0.000000000E+00  3.320282460E+01  3.320282460E+01  0.000000000E+00  0.00000E+00  9.000E+00
      21    -1     0     0   512   502  0.000000000E+00  0.000000000E+00 -1.039514199E+03  1.039514199E+03  0.000000000E+00  0.00000E+00  9.000E+00
      25     1     1     2     0     0 -5.218243229E+01 -4.483736216E+00 -1.639703885E+02  2.127308122E+02  1.250000000E+02  0.00000E+00  9.000E+00
      25     1     1     2     0     0  5.796397372E+01  1.284987878E+01 -5.391960772E+02  5.566707746E+02  1.250000000E+02  0.00000E+00  9.000E+00
      21     1     1     2   512   501 -5.781541423E+00 -8.366142562E+00 -3.031449084E+02  3.033154366E+02  0.000000000E+00  0.00000E+00  9.000E+00
#rwgt            1           1   4.5620070193700693E-002           5      161182           0
</event>
<event>
      5   9999  3.79277E-02  1.20840E+02 -1.00000E+00  1.20240E-01
      21    -1     0     0   502   501  0.000000000E+00  0.000000000E+00  2.822347717E+02  2.822347717E+02  0.000000000E+00  0.00000E+00  9.000E+00
       2    -1     0     0   501     0  0.000000000E+00  0.000000000E+00 -4.035285685E+03  4.035285685E+03  0.000000000E+00  0.00000E+00  9.000E+00
      25     1     1     2     0     0 -4.439917236E+01  2.030646558E+01 -1.250476825E+02  1.834272661E+02  1.250000000E+02  0.00000E+00  9.000E+00
      25     1     1     2     0     0  3.394590069E+01  1.000803052E+02  2.255274586E+02  2.786683087E+02  1.250000000E+02  0.00000E+00  9.000E+00
       2     1     1     2   502     0  1.045327166E+01 -1.203867707E+02 -3.853530689E+03  3.855424881E+03  0.000000000E+00  0.00000E+00  9.000E+00
#rwgt            1           1   2.8998953766030039E-002           5      161502           0
</event>
<event>
      5   9999  3.79277E-02  2.72784E+01 -1.00000E+00  1.55965E-01
      21    -1     0     0   502   501  0.000000000E+00  0.000000000E+00  2.261303461E+03  2.261303461E+03  0.000000000E+00  0.00000E+00  9.000E+00
      -2    -1     0     0     0   502  0.000000000E+00  0.000000000E+00 -7.368184153E+02  7.368184153E+02  0.000000000E+00  0.00000E+00  9.000E+00
      25     1     1     2     0     0 -4.988588524E+01  3.337378703E+01  2.866223751E+02  3.184019427E+02  1.250000000E+02  0.00000E+00  9.000E+00
      25     1     1     2     0     0  2.374454569E+01 -4.116758984E+01  1.956249666E+03  1.960815220E+03  1.250000000E+02  0.00000E+00  9.000E+00
      -2     1     1     2     0   501  2.614133955E+01  7.793802811E+00 -7.183869947E+02  7.189047136E+02  7.629394531E-06  0.00000E+00  9.000E+00
#rwgt            1           1   7.2590760670403362E-002           5      161792           0
</event>
<event>
      5   9999  3.79277E-02  1.42819E+02 -1.00000E+00  1.17244E-01
      21    -1     0     0   502   501  0.000000000E+00  0.000000000E+00  2.077485634E+02  2.077485634E+02  0.000000000E+00  0.00000E+00  9.000E+00
      21    -1     0     0   501   511  0.000000000E+00  0.000000000E+00 -2.062829260E+03  2.062829260E+03  0.000000000E+00  0.00000E+00  9.000E+00
      25     1     1     2     0     0 -5.687436588E+01  3.109137474E+01 -3.841976865E+02  4.091872791E+02  1.250000000E+02  0.00000E+00  9.000E+00
      25     1     1     2     0     0  4.969367836E+01 -1.737295513E+02  1.292373213E+02  2.549092071E+02  1.250000000E+02  0.00000E+00  9.000E+00
      21     1     1     2   502   511  7.180687521E+00  1.426381766E+02 -1.600120331E+03  1.606481337E+03  0.000000000E+00  0.00000E+00  9.000E+00
#rwgt            1           1   5.2163749939914933E-002           5      161932           0
</event>
<event>
      5   9999  3.79277E-02  1.37239E+01 -1.00000E+00  1.81100E-01
      21    -1     0     0   512   501  0.000000000E+00  0.000000000E+00  1.187341475E+02  1.187341475E+02  0.000000000E+00  0.00000E+00  9.000E+00
      21    -1     0     0   501   502  0.000000000E+00  0.000000000E+00 -5.065015040E+02  5.065015040E+02  0.000000000E+00  0.00000E+00  9.000E+00
      25     1     1     2     0     0 -7.403171414E+01 -1.048657788E+02 -3.925964340E+02  4.315489384E+02  1.250000000E+02  0.00000E+00  9.000E+00
      25     1     1     2     0     0  6.296806256E+01  1.129862515E+02  5.288299023E+00  1.799550945E+02  1.250000000E+02  0.00000E+00  9.000E+00
      21     1     1     2   512   502  1.106365158E+01 -8.120472758E+00 -4.592214889E-01  1.373161857E+01  2.558273779E-07  0.00000E+00  9.000E+00
#rwgt            1           1   3.3606039879468551E-002           5      161992           0
</event>
<event>
      5   9999  3.79277E-02  1.17809E+02 -1.00000E+00  1.20709E-01
      21    -1     0     0   502   511  0.000000000E+00  0.000000000E+00  6.193187949E+01  6.193187949E+01  0.000000000E+00  0.00000E+00  9.000E+00
      21    -1     0     0   501   502  0.000000000E+00  0.000000000E+00 -1.420381473E+03  1.420381473E+03  0.000000000E+00  0.00000E+00  9.000E+00
      25     1     1     2     0     0 -3.917217208E+01 -1.566318394E+01 -9.747816600E+02  9.836686836E+02  1.250000000E+02  0.00000E+00  9.000E+00
      25     1     1     2     0     0  1.193059108E+02  1.020198030E+02 -2.450420701E+02  3.167215759E+02  1.250000000E+02  0.00000E+00  9.000E+00
      21     1     1     2   501   511 -8.013373872E+01 -8.635661904E+01 -1.386258633E+02  1.819230928E+02  2.697398305E-06  0.00000E+00  9.000E+00
#rwgt            1           1   4.3292702062098148E-002           5      162261           0
</event>
<event>
      5   9999  3.79277E-02  2.34069E+01 -1.00000E+00  1.60923E-01
      21    -1     0     0   502   512  0.000000000E+00  0.000000000E+00  7.704114192E+02  7.704114192E+02  0.000000000E+00  0.00000E+00  9.000E+00
      21    -1     0     0   501   502  0.000000000E+00  0.000000000E+00 -1.113822289E+02  1.113822289E+02  0.000000000E+00  0.00000E+00  9.000E+00
      25     1     1     2     0     0  1.139921549E+02  2.361317397E+01  4.372668739E+02  4.694455372E+02  1.250000000E+02  0.00000E+00  9.000E+00
      25     1     1     2     0     0 -1.349304915E+02 -1.315047131E+01 -4.912845613E+00  1.844676353E+02  1.250000000E+02  0.00000E+00  9.000E+00
      21     1     1     2   501   512  2.093833663E+01 -1.046270266E+01  2.266751619E+02  2.278804755E+02  0.000000000E+00  0.00000E+00  9.000E+00
#rwgt            1           1   3.6349548055625715E-002           5      162346           0
</event>
<event>
      5   9999 -3.79277E-02  1.19453E+01 -1.00000E+00  1.87237E-01
      21    -1     0     0   502   501  0.000000000E+00  0.000000000E+00  9.384912949E+01  9.384912949E+01  0.000000000E+00  0.00000E+00  9.000E+00
      21    -1     0     0   511   502  0.000000000E+00  0.000000000E+00 -3.425829413E+02  3.425829413E+02  0.000000000E+00  0.00000E+00  9.000E+00
      25     1     1     2     0     0 -5.332291327E+01 -9.665491671E+01 -7.491149396E+01  1.828174990E+02  1.250000000E+02  0.00000E+00  9.000E+00
      25     1     1     2     0     0  4.965223597E+01  1.080223001E+02 -1.654713249E+02  2.390395809E+02  1.250000000E+02  0.00000E+00  9.000E+00
      21     1     1     2   511   501  3.670677302E+00 -1.136738342E+01 -8.350992946E+00  1.457499094E+01  2.064765462E-07  0.00000E+00  9.000E+00
#rwgt            1           1 -0.17440548744406165                5      162534           0
</event>
<event>
      5   9999  3.79277E-02  5.02728E+01 -1.00000E+00  1.38941E-01
      21    -1     0     0   502   501  0.000000000E+00  0.000000000E+00  1.816355974E+02  1.816355974E+02  0.000000000E+00  0.00000E+00  9.000E+00
       2    -1     0     0   501     0  0.000000000E+00  0.000000000E+00 -6.585471477E+02  6.585471477E+02  0.000000000E+00  0.00000E+00  9.000E+00
      25     1     1     2     0     0 -1.318461083E+02 -4.774278138E+01 -4.752485416E+01  1.937688861E+02  1.250000000E+02  0.00000E+00  9.000E+00
      25     1     1     2     0     0  9.461124884E+01  8.152026585E+01  3.431221904E+01  1.799976959E+02  1.250000000E+02  0.00000E+00  9.000E+00
       2     1     1     2   502     0  3.723485944E+01 -3.377748447E+01 -4.636989153E+02  4.664161631E+02  7.629394531E-06  0.00000E+00  9.000E+00
#rwgt            1           1   2.9691348266765401E-002           5      162987           0
</event>
<event>
      5   9999  3.79277E-02  5.98514E+01 -1.00000E+00  1.34761E-01
      21    -1     0     0   502   501  0.000000000E+00  0.000000000E+00  7.724362199E+01  7.724362199E+01  0.000000000E+00  0.00000E+00  9.000E+00
      21    -1     0     0   511   502  0.000000000E+00  0.000000000E+00 -1.028780721E+03  1.028780721E+03  0.000000000E+00  0.00000E+00  9.000E+00
      25     1     1     2     0     0  1.559527699E+02  1.685492888E+02 -3.514567485E+02  4.380376414E+02  1.250000000E+02  0.00000E+00  9.000E+00
      25     1     1     2     0     0 -9.619235140E+01 -1.718480046E+02 -4.900034820E+02  5.426906278E+02  1.250000000E+02  0.00000E+00  9.000E+00
      21     1     1     2   511   501 -5.976041846E+01  3.298715895E+00 -1.100768689E+02  1.252960742E+02  2.336015456E-06  0.00000E+00  9.000E+00
#rwgt            1           1   3.8024171079759084E-002           5      163065           0
</event>
<event>
      5   9999  3.79277E-02  6.41382E+02 -1.00000E+00  9.58738E-02
      21    -1     0     0   502   501  0.000000000E+00  0.000000000E+00  2.388272685E+02  2.388272685E+02  0.000000000E+00  0.00000E+00  9.000E+00
       1    -1     0     0   501     0  0.000000000E+00  0.000000000E+00 -2.490174499E+03  2.490174499E+03  0.000000000E+00  0.00000E+00  9.000E+00
      25     1     1     2     0     0  6.178484278E+01  1.114085039E+02 -1.699278692E+02  2.464339714E+02  1.250000000E+02  0.00000E+00  9.000E+00
      25     1     1     2     0     0  5.712356162E+02 -2.146349381E+02 -5.851929638E+02  8.546660698E+02  1.250000000E+02  0.00000E+00  9.000E+00
       1     1     1     2   502     0 -6.330204590E+02  1.032264343E+02 -1.496226398E+03  1.627901727E+03  3.051757812E-05  0.00000E+00  9.000E+00
#rwgt            2          12   1.4232670333011188E-005           5      163128           0
</event>
<event>
      5   9999  3.79277E-02  2.18165E+01 -1.00000E+00  1.63313E-01
      21    -1     0     0   502   511  0.000000000E+00  0.000000000E+00  8.642976328E+02  8.642976328E+02  0.000000000E+00  0.00000E+00  9.000E+00
      21    -1     0     0   501   502  0.000000000E+00  0.000000000E+00 -6.796959931E+01  6.796959931E+01  0.000000000E+00  0.00000E+00  9.000E+00
      25     1     1     2     0     0 -1.207352956E+02 -4.987964830E+01  1.062711595E+02  2.097225555E+02  1.250000000E+02  0.00000E+00  9.000E+00
      25     1     1     2     0     0  1.397133926E+02  3.911906543E+01  6.373838272E+02  6.655323257E+02  1.250000000E+02  0.00000E+00  9.000E+00
      21     1     1     2   501   511 -1.897809696E+01  1.076058287E+01  5.267304671E+01  5.701235093E+01  6.743495762E-07  0.00000E+00  9.000E+00
#rwgt            1           1   4.5007347598444269E-002           5      163282           0
</event>
<event>
      5   9999  3.79277E-02  3.54469E+01 -1.00000E+00  1.48172E-01
      21    -1     0     0   502   512  0.000000000E+00  0.000000000E+00  2.351983530E+02  2.351983530E+02  0.000000000E+00  0.00000E+00  9.000E+00
      21    -1     0     0   501   502  0.000000000E+00  0.000000000E+00 -1.734178033E+02  1.734178033E+02  0.000000000E+00  0.00000E+00  9.000E+00
      25     1     1     2     0     0  1.126746135E+02  5.096291950E+00 -6.298848754E+01  1.797612035E+02  1.250000000E+02  0.00000E+00  9.000E+00
      25     1     1     2     0     0 -8.522583169E+01 -2.752492951E+01  1.152028504E+02  1.921399512E+02  1.250000000E+02  0.00000E+00  9.000E+00
      21     1     1     2   501   512 -2.744878182E+01  2.242863756E+01  9.566186925E+00  3.671500155E+01  3.769728732E-07  0.00000E+00  9.000E+00
#rwgt            1           1   3.0190094149822662E-002           5      163552           0
</event>
<event>
      5   9999  3.79277E-02  1.68219E+01 -1.00000E+00  1.72819E-01
      21    -1     0     0   502   511  0.000000000E+00  0.000000000E+00  8.409330940E+01  8.409330940E+01  0.000000000E+00  0.00000E+00  9.000E+00
      21    -1     0     0   501   502  0.000000000E+00  0.000000000E+00 -1.316685885E+03  1.316685885E+03  0.000000000E+00  0.00000E+00  9.000E+00
      25     1     1     2     0     0 -2.226150475E+02 -9.111154421E+01 -9.088691405E+02  9.484339130E+02  1.250000000E+02  0.00000E+00  9.000E+00
      25     1     1     2     0     0  2.307450223E+02  1.058383812E+02 -3.297128895E+02  4.344889156E+02  1.250000000E+02  0.00000E+00  9.000E+00
      21     1     1     2   501   511 -8.129974857E+00 -1.472683701E+01  5.989454713E+00  1.785636546E+01  6.194296387E-07  0.00000E+00  9.000E+00
#rwgt            1           1  0.10849830079734951                5      163720           0
</event>
<event>
      5   9999  3.79277E-02  3.44810E+01 -1.00000E+00  1.48956E-01
      21    -1     0     0   512   501  0.000000000E+00  0.000000000E+00  1.173879855E+03  1.173879855E+03  0.000000000E+00  0.00000E+00  9.000E+00
      21    -1     0     0   501   502  0.000000000E+00  0.000000000E+00 -1.046881538E+02  1.046881538E+02  0.000000000E+00  0.00000E+00  9.000E+00
      25     1     1     2     0     0 -2.614831260E+02  6.035476819E+01  2.479951915E+02  3.861900286E+02  1.250000000E+02  0.00000E+00  9.000E+00
      25     1     1     2     0     0  2.344686974E+02 -3.892669835E+01  4.847120110E+02  5.541313847E+02  1.250000000E+02  0.00000E+00  9.000E+00
      21     1     1     2   512   502  2.701442854E+01 -2.142806984E+01  3.364844985E+02  3.382465953E+02  5.394796609E-06  0.00000E+00  9.000E+00
#rwgt            2          11   6.1650724571735995E-004           5      164239           0
</event>
<event>
      5   9999  3.79277E-02  1.16994E+02 -1.00000E+00  1.20838E-01
      21    -1     0     0   502   501  0.000000000E+00  0.000000000E+00  2.064043468E+03  2.064043468E+03  0.000000000E+00  0.00000E+00  9.000E+00
       1    -1     0     0   501     0  0.000000000E+00  0.000000000E+00 -3.979606895E+01  3.979606895E+01  0.000000000E+00  0.00000E+00  9.000E+00
      25     1     1     2     0     0  6.923294035E+01  3.639593160E+01  1.490843668E+03  1.498118054E+03  1.250000000E+02  0.00000E+00  9.000E+00
      25     1     1     2     0     0 -3.430223405E+01  7.526163567E+01  4.058292332E+02  4.326237668E+02  1.250000000E+02  0.00000E+00  9.000E+00
       1     1     1     2   502     0 -3.493070631E+01 -1.116575673E+02  1.275744982E+02  1.730977156E+02  1.348699152E-06  0.00000E+00  9.000E+00
#rwgt            1           1  0.13361424536667060                5      164274           0
</event>
<event>
      5   9999  3.79277E-02  4.38037E+01 -1.00000E+00  1.42435E-01
      21    -1     0     0   502   501  0.000000000E+00  0.000000000E+00  1.043286779E+03  1.043286779E+03  0.000000000E+00  0.00000E+00  9.000E+00
      21    -1     0     0   511   502  0.000000000E+00  0.000000000E+00 -7.196956216E+02  7.196956216E+02  0.000000000E+00  0.00000E+00  9.000E+00
      25     1     1     2     0     0 -5.218898622E+01 -4.559674555E+02  3.728802010E+02  6.043961077E+02  1.250000000E+02  0.00000E+00  9.000E+00
      25     1     1     2     0     0  8.454647627E+00  4.535031023E+02  4.537497505E+02  6.536439252E+02  1.250000000E+02  0.00000E+00  9.000E+00
      21     1     1     2   511   501  4.373433860E+01  2.464353161E+00 -5.030387945E+02  5.049423672E+02  5.394796609E-06  0.00000E+00  9.000E+00
#rwgt            1           1  0.24273762715116359                5      164326           0
</event>
<event>
      5   9999  3.79277E-02  1.02368E+01 -1.00000E+00  1.94590E-01
      -1    -1     0     0     0   501  0.000000000E+00  0.000000000E+00  3.975493356E+02  3.975493356E+02  0.000000000E+00  0.00000E+00  9.000E+00
      21    -1     0     0   501   502  0.000000000E+00  0.000000000E+00 -4.843164466E+02  4.843164466E+02  0.000000000E+00  0.00000E+00  9.000E+00
      25     1     1     2     0     0 -2.014179984E+01  9.609352488E+01 -4.030574628E+02  4.332666338E+02  1.250000000E+02  0.00000E+00  9.000E+00
      25     1     1     2     0     0  3.026682044E+01 -9.458510353E+01  3.038870244E+01  1.625142931E+02  1.250000000E+02  0.00000E+00  9.000E+00
      -1     1     1     2     0   502 -1.012502060E+01 -1.508421351E+00  2.859016493E+02  2.860848553E+02  3.814697266E-06  0.00000E+00  9.000E+00
#rwgt            1           1   3.2780524577009487E-002           5      164509           0
</event>
<event>
      5   9999  3.79277E-02  3.30926E+01 -1.00000E+00  1.50138E-01
      21    -1     0     0   502   511  0.000000000E+00  0.000000000E+00  1.837600991E+03  1.837600991E+03  0.000000000E+00  0.00000E+00  9.000E+00
      21    -1     0     0   501   502  0.000000000E+00  0.000000000E+00 -3.472091399E+01  3.472091399E+01  0.000000000E+00  0.00000E+00  9.000E+00
      25     1     1     2     0     0  1.918362645E+02 -2.601172556E+01  5.458146910E+02  5.924664034E+02  1.250000000E+02  0.00000E+00  9.000E+00
      25     1     1     2     0     0 -1.603303544E+02  3.613576800E+01  1.042408893E+03  1.062663125E+03  1.250000000E+02  0.00000E+00  9.000E+00
      21     1     1     2   501   511 -3.150591008E+01 -1.012404244E+01  2.146564925E+02  2.171923764E+02  0.000000000E+00  0.00000E+00  9.000E+00
#rwgt            1           1   4.3985149272779037E-002           5      164791           0
</event>
<event>
      5   9999  3.79277E-02  4.18024E+01 -1.00000E+00  1.43663E-01
      21    -1     0     0   502   501  0.000000000E+00  0.000000000E+00  8.981677401E+01  8.981677401E+01  0.000000000E+00  0.00000E+00  9.000E+00
      21    -1     0     0   501   512  0.000000000E+00  0.000000000E+00 -1.000230869E+03  1.000230869E+03  0.000000000E+00  0.00000E+00  9.000E+00
      25     1     1     2     0     0 -6.039952536E+01  9.831661085E+01 -3.271012984E+01  1.732316692E+02  1.250000000E+02  0.00000E+00  9.000E+00
      25     1     1     2     0     0  7.416534431E+01 -5.884586607E+01 -3.083615049E+02  3.459409660E+02  1.250000000E+02  0.00000E+00  9.000E+00
      21     1     1     2   502   512 -1.376581895E+01 -3.947074478E+01 -5.693424598E+02  5.708750074E+02  7.629394531E-06  0.00000E+00  9.000E+00
#rwgt            1           1   3.7020058286430985E-002           5      164913           0
</event>
<event>
      5   9999  3.79277E-02  9.37633E+01 -1.00000E+00  1.25099E-01
      21    -1     0     0   502   501  0.000000000E+00  0.000000000E+00  4.021399632E+02  4.021399632E+02  0.000000000E+00  0.00000E+00  9.000E+00
      21    -1     0     0   501   511  0.000000000E+00  0.000000000E+00 -2.029677908E+02  2.029677908E+02  0.000000000E+00  0.00000E+00  9.000E+00
      25     1     1     2     0     0  8.499053752E+01  1.505092185E+02  8.955273437E+01  2.313462957E+02  1.250000000E+02  0.00000E+00  9.000E+00
      25     1     1     2     0     0 -1.776321368E+02 -1.360494515E+02  1.126249962E+02  2.799500296E+02  1.250000000E+02  0.00000E+00  9.000E+00
      21     1     1     2   502   511  9.264159931E+01 -1.445976699E+01 -3.005558167E+00  9.381142875E+01  1.657716511E-06  0.00000E+00  9.000E+00
#rwgt            1           1   4.3571094305330377E-002           5      164998           0
</event>
<event>
      5   9999  3.79277E-02  1.24814E+01 -1.00000E+00  1.85250E-01
      21    -1     0     0   502   501  0.000000000E+00  0.000000000E+00  1.823683326E+02  1.823683326E+02  0.000000000E+00  0.00000E+00  9.000E+00
      21    -1     0     0   512   502  0.000000000E+00  0.000000000E+00 -2.017612312E+02  2.017612312E+02  0.000000000E+00  0.00000E+00  9.000E+00
      25     1     1     2     0     0 -1.390114064E+02 -7.389722633E+00 -6.598425638E+00  1.872092902E+02  1.250000000E+02  0.00000E+00  9.000E+00
      25     1     1     2     0     0  1.306567754E+02  1.666252307E+01 -3.962644787E+00  1.816302155E+02  1.250000000E+02  0.00000E+00  9.000E+00
      21     1     1     2   512   501  8.354631088E+00 -9.272800437E+00 -8.831828143E+00  1.529005811E+01  1.192092896E-07  0.00000E+00  9.000E+00
#rwgt            1           1   3.5145678043813793E-002           5      165164           0
</event>
<event>
      5   9999  3.79277E-02  9.28111E+01 -1.00000E+00  1.25303E-01
      21    -1     0     0   502   501  0.000000000E+00  0.000000000E+00  1.266599781E+02  1.266599781E+02  0.000000000E+00  0.00000E+00  9.000E+00
       1    -1     0     0   501     0  0.000000000E+00  0.000000000E+00 -2.044857508E+03  2.044857508E+03  0.000000000E+00  0.00000E+00  9.000E+00
      25     1     1     2     0     0 -8.198491471E+01 -9.661192404E+01 -2.376864604E+01  1.795698712E+02  1.250000000E+02  0.00000E+00  9.000E+00
      25     1     1     2     0     0  1.336056216E+02  1.737429739E+02 -2.882107069E+02  3.830502508E+02  1.250000000E+02  0.00000E+00  9.000E+00
       1     1     1     2   502     0 -5.162070690E+01 -7.713104983E+01 -1.606218177E+03  1.608897364E+03  2.157918644E-05  0.00000E+00  9.000E+00
#rwgt            1           1   6.7111729454001554E-002           5      165465           0
</event>
<event>
      5   9999  3.79277E-02  1.15180E+01 -1.00000E+00  1.88920E-01
      -1    -1     0     0     0   501  0.000000000E+00  0.000000000E+00  6.087957387E+01  6.087957387E+01  0.000000000E+00  0.00000E+00  9.000E+00
      21    -1     0     0   501   502  0.000000000E+00  0.000000000E+00 -8.204249196E+02  8.204249196E+02  0.000000000E+00  0.00000E+00  9.000E+00
      25     1     1     2     0     0  6.489713907E+01  2.596616049E+01 -4.344966587E+02  4.574912311E+02  1.250000000E+02  0.00000E+00  9.000E+00
      25     1     1     2     0     0 -7.134107731E+01 -1.641939493E+01 -3.594464885E+02  3.875382871E+02  1.250000000E+02  0.00000E+00  9.000E+00
      -1     1     1     2     0   502  6.443938240E+00 -9.546765560E+00  3.439780155E+01  3.627497518E+01  1.719260824E-06  0.00000E+00  9.000E+00
#rwgt            1           1   4.1971487523083474E-002           5      165516           0
</event>
<event>
      5   9999  3.79277E-02  2.85570E+01 -1.00000E+00  1.54542E-01
      21    -1     0     0   502   501  0.000000000E+00  0.000000000E+00  8.784796360E+02  8.784796360E+02  0.000000000E+00  0.00000E+00  9.000E+00
      21    -1     0     0   511   502  0.000000000E+00  0.000000000E+00 -6.273209558E+01  6.273209558E+01  0.000000000E+00  0.00000E+00  9.000E+00
      25     1     1     2     0     0  6.606649237E+01 -1.226197951E+02  2.215589691E+02  2.900237445E+02  1.250000000E+02  0.00000E+00  9.000E+00
      25     1     1     2     0     0 -6.726601938E+01  1.511516076E+02  5.858123116E+02  6.214278641E+02  1.250000000E+02  0.00000E+00  9.000E+00
      21     1     1     2   511   501  1.199527012E+00 -2.853181255E+01  8.376259628E+00  2.976012294E+01  5.840038640E-07  0.00000E+00  9.000E+00
#rwgt            1           1   2.5739521273044876E-002           5      165760           0
</event>
<event>
      5   9999  3.79277E-02  3.10611E+01 -1.00000E+00  1.51999E-01
      21    -1     0     0   502   512  0.000000000E+00  0.000000000E+00  2.050079711E+02  2.050079711E+02  0.000000000E+00  0.00000E+00  9.000E+00
      21    -1     0     0   501   502  0.000000000E+00  0.000000000E+00 -8.511167084E+02  8.511167084E+02  0.000000000E+00  0.00000E+00  9.000E+00
      25     1     1     2     0     0 -1.295102978E+01 -7.848859424E+01 -1.559247656E+02  2.150946794E+02  1.250000000E+02  0.00000E+00  9.000E+00
      25     1     1     2     0     0 -8.433308938E+00  1.010164661E+02 -6.544016630E+02  6.739005740E+02  1.250000000E+02  0.00000E+00  9.000E+00
      21     1     1     2   501   512  2.138433872E+01 -2.252787188E+01  1.642176912E+02  1.671294261E+02  3.303624740E-06  0.00000E+00  9.000E+00
#rwgt            1           1   3.1145259091513441E-002           5      165852           0
</event>
<event>
      5   9999  3.79277E-02  1.73545E+01 -1.00000E+00  1.71619E-01
      21    -1     0     0   502   501  0.000000000E+00  0.000000000E+00  3.428446669E+01  3.428446669E+01  0.000000000E+00  0.00000E+00  9.000E+00
      21    -1     0     0   511   502  0.000000000E+00  0.000000000E+00 -9.786890402E+02  9.786890402E+02  0.000000000E+00  0.00000E+00  9.000E+00
      25     1     1     2     0     0  4.370204451E+01 -5.510849664E+01 -6.952962433E+02  7.099356880E+02  1.250000000E+02  0.00000E+00  9.000E+00
      25     1     1     2     0     0 -2.639690936E+01  5.380036058E+01 -1.575660865E+02  2.098650691E+02  1.250000000E+02  0.00000E+00  9.000E+00
      21     1     1     2   511   501 -1.730513515E+01  1.308136058E+00 -9.154224369E+01  9.317274978E+01  1.348699152E-06  0.00000E+00  9.000E+00
#rwgt            1           1   3.4218925337234481E-002           5      166103           0
</event>
<event>
      5   9999  3.79277E-02  1.26654E+02 -1.00000E+00  1.19382E-01
      21    -1     0     0   502   501  0.000000000E+00  0.000000000E+00  4.229928423E+02  4.229928423E+02  0.000000000E+00  0.00000E+00  9.000E+00
      21    -1     0     0   512   502  0.000000000E+00  0.000000000E+00 -1.328415556E+02  1.328415556E+02  0.000000000E+00  0.00000E+00  9.000E+00
      25     1     1     2     0     0  9.625458317E+01  4.914866331E+01  2.122976635E+02  2.690275708E+02  1.250000000E+02  0.00000E+00  9.000E+00
      25     1     1     2     0     0  2.884185617E+01 -6.895065345E+01  6.505030210E+01  1.595073261E+02  1.250000000E+02  0.00000E+00  9.000E+00
      21     1     1     2   512   501 -1.250964393E+02  1.980199014E+01  1.280332103E+01  1.272995011E+02  2.098896129E-06  0.00000E+00  9.000E+00
#rwgt            1           1  0.10029289889637578                5      166243           0
</event>
<event>
      5   9999  3.79277E-02  8.48295E+00 -1.00000E+00  2.04397E-01
       2    -1     0     0   502     0  0.000000000E+00  0.000000000E+00  7.422962304E+02  7.422962304E+02  0.000000000E+00  0.00000E+00  9.000E+00
      21    -1     0     0   501   502  0.000000000E+00  0.000000000E+00 -1.273489945E+02  1.273489945E+02  0.000000000E+00  0.00000E+00  9.000E+00
      25     1     1     2     0     0 -9.329502734E+01  3.605201384E+00  1.523509790E+02  2.180660001E+02  1.250000000E+02  0.00000E+00  9.000E+00
      25     1     1     2     0     0  9.377013801E+01  4.864437054E+00 -2.976405039E+01  1.591458458E+02  1.250000000E+02  0.00000E+00  9.000E+00
       2     1     1     2   501     0 -4.751106717E-01 -8.469638438E+00  4.923603074E+02  4.924333790E+02  9.344061824E-06  0.00000E+00  9.000E+00
#rwgt            1           1   4.2492937012704332E-002           5      166333           0
</event>
<event>
      5   9999  3.79277E-02  1.66344E+02 -1.00000E+00  1.14641E-01
      21    -1     0     0   511   501  0.000000000E+00  0.000000000E+00  5.433301147E+02  5.433301147E+02  0.000000000E+00  0.00000E+00  9.000E+00
      21    -1     0     0   501   502  0.000000000E+00  0.000000000E+00 -5.127088088E+02  5.127088088E+02  0.000000000E+00  0.00000E+00  9.000E+00
      25     1     1     2     0     0 -3.117428967E+01 -2.348207891E+02 -2.186302118E+02  3.457409563E+02  1.250000000E+02  0.00000E+00  9.000E+00
      25     1     1     2     0     0 -1.348538618E+02  2.450637522E+02 -1.009648772E+02  3.225844278E+02  1.250000000E+02  0.00000E+00  9.000E+00
      21     1     1     2   511   502  1.660281514E+02 -1.024296306E+01  3.502163950E+02  3.877135394E+02  5.394796609E-06  0.00000E+00  9.000E+00
#rwgt            1           1   3.4178462577522238E-002           5      166705           0
</event>
<event>
      5   9999  3.79277E-02  4.08045E+01 -1.00000E+00  1.44306E-01
      21    -1     0     0   502   501  0.000000000E+00  0.000000000E+00  5.291183655E+02  5.291183655E+02  0.000000000E+00  0.00000E+00  9.000E+00
      21    -1     0     0   512   502  0.000000000E+00  0.000000000E+00 -1.617451094E+02  1.617451094E+02  0.000000000E+00  0.00000E+00  9.000E+00
      25     1     1     2     0     0 -7.987454914E+01  2.269589011E+02  2.909499460E+02  3.977023478E+02  1.250000000E+02  0.00000E+00  9.000E+00
      25     1     1     2     0     0  7.237233358E+01 -1.868500034E+02  8.583838920E+01  2.512845150E+02  1.250000000E+02  0.00000E+00  9.000E+00
      21     1     1     2   512   501  7.502215553E+00 -4.010889775E+01 -9.415079124E+00  4.187661199E+01  8.172577143E-07  0.00000E+00  9.000E+00
#rwgt            1           1   4.1588062639990618E-002           5      166873           0
</event>
<event>
      5   9999  3.79277E-02  5.77640E+01 -1.00000E+00  1.35591E-01
       2    -1     0     0   502     0  0.000000000E+00  0.000000000E+00  2.368936503E+03  2.368936503E+03  0.000000000E+00  0.00000E+00  9.000E+00
      21    -1     0     0   501   502  0.000000000E+00  0.000000000E+00 -1.653044876E+02  1.653044876E+02  0.000000000E+00  0.00000E+00  9.000E+00
      25     1     1     2     0     0 -1.422053895E+02  4.264943504E+01 -6.065726745E+01  2.033363008E+02  1.250000000E+02  0.00000E+00  9.000E+00
      25     1     1     2     0     0  9.656065547E+01 -7.248393723E+00  1.570002132E+02  2.228240704E+02  1.250000000E+02  0.00000E+00  9.000E+00
       2     1     1     2   501     0  4.564473404E+01 -3.540104132E+01  2.107289069E+03  2.108080619E+03  3.051757812E-05  0.00000E+00  9.000E+00
#rwgt            1           1   5.5343156172055610E-002           5      167012           0
</event>
<event>
      5   9999  3.79277E-02  1.34247E+02 -1.00000E+00  1.18336E-01
      21    -1     0     0   511   501  0.000000000E+00  0.000000000E+00  9.916986486E+02  9.916986486E+02  0.000000000E+00  0.00000E+00  9.000E+00
      21    -1     0     0   501   502  0.000000000E+00  0.000000000E+00 -1.393539098E+02  1.393539098E+02  0.000000000E+00  0.00000E+00  9.000E+00
      25     1     1     2     0     0 -1.404968080E+02 -7.080043873E+00  4.935408083E+01  1.945515494E+02  1.250000000E+02  0.00000E+00  9.000E+00
      25     1     1     2     0     0  2.731164031E+02 -1.375799913E+01  3.373663891E+02  4.519103148E+02  1.250000000E+02  0.00000E+00  9.000E+00
      21     1     1     2   511   502 -1.326195951E+02  2.083804301E+01  4.656242689E+02  4.845906941E+02  7.629394531E-06  0.00000E+00  9.000E+00
#rwgt            1           1   4.3476907458586241E-002           5      167213           0
</event>
<event>
      5   9999 -3.79277E-02  7.79494E+01 -1.00000E+00  1.28898E-01
      21    -1     0     0   502   501  0.000000000E+00  0.000000000E+00  8.902974431E+01  8.902974431E+01  0.000000000E+00  0.00000E+00  9.000E+00
      21    -1     0     0   512   502  0.000000000E+00  0.000000000E+00 -1.263475511E+03  1.263475511E+03  0.000000000E+00  0.00000E+00  9.000E+00
      25     1     1     2     0     0 -9.904454303E+01 -1.517522650E+02 -9.929941795E+01  2.415035110E+02  1.250000000E+02  0.00000E+00  9.000E+00
      25     1     1     2     0     0  2.109578523E+01  1.514478949E+02 -8.533439105E+02  8.759008657E+02  1.250000000E+02  0.00000E+00  9.000E+00
      21     1     1     2   512   501  7.794875780E+01  3.043701279E-01 -2.218024381E+02  2.351008784E+02  2.697398305E-06  0.00000E+00  9.000E+00
#rwgt            1           1 -0.13547139725241353                5      167274           0
</event>
<event>
      5   9999  3.79277E-02  1.98781E+01 -1.00000E+00  1.66589E-01
      21    -1     0     0   502   511  0.000000000E+00  0.000000000E+00  1.250278192E+02  1.250278192E+02  0.000000000E+00  0.00000E+00  9.000E+00
      21    -1     0     0   501   502  0.000000000E+00  0.000000000E+00 -4.174034338E+02  4.174034338E+02  0.000000000E+00  0.00000E+00  9.000E+00
      25     1     1     2     0     0  6.680023190E+00  1.451561176E+02 -8.999426445E+01  2.117519512E+02  1.250000000E+02  0.00000E+00  9.000E+00
      25     1     1     2     0     0 -2.413722568E+01 -1.356491045E+02 -2.305232025E+02  2.962249688E+02  1.250000000E+02  0.00000E+00  9.000E+00
      21     1     1     2   501   511  1.745720249E+01 -9.507013120E+00  2.814185227E+01  3.445433306E+01  6.743495762E-07  0.00000E+00  9.000E+00
#rwgt            1           1   6.0611010776219311E-002           5      167383           0
</event>
<event>
      5   9999  3.79277E-02  2.11731E+01 -1.00000E+00  1.64352E-01
       1    -1     0     0   502     0  0.000000000E+00  0.000000000E+00  7.914138313E+02  7.914138313E+02  0.000000000E+00  0.00000E+00  9.000E+00
      21    -1     0     0   501   502  0.000000000E+00  0.000000000E+00 -2.728030420E+02  2.728030420E+02  0.000000000E+00  0.00000E+00  9.000E+00
      25     1     1     2     0     0  1.965502738E+01  7.985526951E+01  3.948426880E+01  1.547488018E+02  1.250000000E+02  0.00000E+00  9.000E+00
      25     1     1     2     0     0 -4.019336373E+01 -8.500103908E+01 -1.865543120E+02  2.434505996E+02  1.250000000E+02  0.00000E+00  9.000E+00
       1     1     1     2   501     0  2.053833635E+01  5.145769572E+00  6.656808325E+02  6.660174720E+02  1.525878906E-05  0.00000E+00  9.000E+00
#rwgt            1           1   3.1589032582755791E-002           5      167696           0
</event>
<event>
      5   9999  3.79277E-02  1.99700E+01 -1.00000E+00  1.66423E-01
      21    -1     0     0   511   501  0.000000000E+00  0.000000000E+00  1.285741116E+02  1.285741116E+02  0.000000000E+00  0.00000E+00  9.000E+00
      21    -1     0     0   501   502  0.000000000E+00  0.000000000E+00 -1.981049573E+03  1.981049573E+03  0.000000000E+00  0.00000E+00  9.000E+00
      25     1     1     2     0     0  2.288358044E+01 -1.894047490E+02 -9.238958571E+02  9.516335282E+02  1.250000000E+02  0.00000E+00  9.000E+00
      25     1     1     2     0     0 -2.769079410E+01  1.700220251E+02 -1.031459793E+03  1.053189714E+03  1.250000000E+02  0.00000E+00  9.000E+00
      21     1     1     2   511   502  4.807213661E+00  1.938272388E+01  1.028801892E+02  1.048004419E+02  2.697398305E-06  0.00000E+00  9.000E+00
#rwgt            1           1  0.12504968659415316                5      167855           0
</event>
<event>
      5   9999  3.79277E-02  1.78632E+01 -1.00000E+00  1.70522E-01
      21    -1     0     0   512   501  0.000000000E+00  0.000000000E+00  1.437931789E+02  1.437931789E+02  0.000000000E+00  0.00000E+00  9.000E+00
      21    -1     0     0   501   502  0.000000000E+00  0.000000000E+00 -2.762598874E+02  2.762598874E+02  0.000000000E+00  0.00000E+00  9.000E+00
      25     1     1     2     0     0  1.080329728E+02  5.848599663E+01 -1.235729397E+02  2.144458124E+02  1.250000000E+02  0.00000E+00  9.000E+00
      25     1     1     2     0     0 -1.256982923E+02 -6.113747494E+01 -7.064373019E+00  1.876506246E+02  1.250000000E+02  0.00000E+00  9.000E+00
      21     1     1     2   512   502  1.766531949E+01  2.651478313E+00 -1.829395793E+00  1.795662939E+01  2.755707802E-07  0.00000E+00  9.000E+00
#rwgt            1           1   3.5263020274432830E-002           5      167963           0
</event>
<event>
      5   9999  3.79277E-02  2.32038E+01 -1.00000E+00  1.61215E-01
      21    -1     0     0   502   511  0.000000000E+00  0.000000000E+00  1.769809897E+02  1.769809897E+02  0.000000000E+00  0.00000E+00  9.000E+00
      21    -1     0     0   501   502  0.000000000E+00  0.000000000E+00 -3.984456250E+02  3.984456250E+02  0.000000000E+00  0.00000E+00  9.000E+00
      25     1     1     2     0     0  2.171268255E+01 -4.644582320E+01 -3.173363464E+02  3.449000027E+02  1.250000000E+02  0.00000E+00  9.000E+00
      25     1     1     2     0     0  8.853159382E-01  5.171327820E+01  3.540103641E+00  1.353239789E+02  1.250000000E+02  0.00000E+00  9.000E+00
      21     1     1     2   501   511 -2.259799849E+01 -5.267454997E+00  9.233160749E+01  9.520263316E+01  1.348699152E-06  0.00000E+00  9.000E+00
#rwgt            1           1   2.8013128082472836E-002           5      168149           0
</event>
<event>
      5   9999  3.79277E-02  4.00628E+01 -1.00000E+00  1.44798E-01
      21    -1     0     0   512   501  0.000000000E+00  0.000000000E+00  2.938121697E+02  2.938121697E+02  0.000000000E+00  0.00000E+00  9.000E+00
      21    -1     0     0   501   502  0.000000000E+00  0.000000000E+00 -2.250050340E+02  2.250050340E+02  0.000000000E+00  0.00000E+00  9.000E+00
      25     1     1     2     0     0 -1.921744351E+00  1.083218715E+02  8.173255422E+01  1.845061825E+02  1.250000000E+02  0.00000E+00  9.000E+00
      25     1     1     2     0     0  1.504390707E+00 -6.826120306E+01 -1.408174803E+02  2.002908330E+02  1.250000000E+02  0.00000E+00  9.000E+00
      21     1     1     2   512   502  4.173536438E-01 -4.006066848E+01  1.278920619E+02  1.340201881E+02  0.000000000E+00  0.00000E+00  9.000E+00
#rwgt            1           1   4.1736494349478626E-002           5      168288           0
</event>
<event>
      5   9999  3.79277E-02  1.42842E+01 -1.00000E+00  1.79408E-01
      21    -1     0     0   502   501  0.000000000E+00  0.000000000E+00  1.280746090E+02  1.280746090E+02  0.000000000E+00  0.00000E+00  9.000E+00
      21    -1     0     0   511   502  0.000000000E+00  0.000000000E+00 -3.823281180E+02  3.823281180E+02  0.000000000E+00  0.00000E+00  9.000E+00
      25     1     1     2     0     0 -1.171712538E+02  4.370705769E+01 -2.490596661E+01  1.785629211E+02  1.250000000E+02  0.00000E+00  9.000E+00
      25     1     1     2     0     0  1.173662059E+02 -5.798996867E+01 -1.103543535E+02  2.119923255E+02  1.250000000E+02  0.00000E+00  9.000E+00
      21     1     1     2   511   501 -1.949520590E-01  1.428291098E+01 -1.189931888E+02  1.198474803E+02  1.348699152E-06  0.00000E+00  9.000E+00
#rwgt            1           1   2.8937384165509162E-002           5      168458           0
</event>
<event>
      5   9999  3.79277E-02  3.37208E+01 -1.00000E+00  1.49595E-01
      21    -1     0     0   512   501  0.000000000E+00  0.000000000E+00  4.884490274E+02  4.884490274E+02  0.000000000E+00  0.00000E+00  9.000E+00
      21    -1     0     0   501   502  0.000000000E+00  0.000000000E+00 -1.238433548E+02  1.238433548E+02  0.000000000E+00  0.00000E+00  9.000E+00
      25     1     1     2     0     0  1.575359023E+02  1.110516471E+02  1.193181139E+02  2.588664542E+02  1.250000000E+02  0.00000E+00  9.000E+00
      25     1     1     2     0     0 -1.510885274E+02 -7.795300143E+01  1.701648439E+02  2.710820681E+02  1.250000000E+02  0.00000E+00  9.000E+00
      21     1     1     2   512   502 -6.447374902E+00 -3.309864565E+01  7.512271479E+01  8.234385990E+01  1.651812370E-06  0.00000E+00  9.000E+00
#rwgt            1           1   2.4565768490028349E-002           5      168614           0
</event>
<event>
      5   9999  3.79277E-02  6.44315E+00 -1.00000E+00  2.20771E-01
      21    -1     0     0   502   501  0.000000000E+00  0.000000000E+00  5.072749556E+01  5.072749556E+01  0.000000000E+00  0.00000E+00  9.000E+00
      21    -1     0     0   511   502  0.000000000E+00  0.000000000E+00 -5.017459308E+02  5.017459308E+02  0.000000000E+00  0.00000E+00  9.000E+00
      25     1     1     2     0     0  6.567110744E+01 -1.440809667E+01 -2.344220750E+02  2.740419618E+02  1.250000000E+02  0.00000E+00  9.000E+00
      25     1     1     2     0     0 -7.154333455E+01  1.705971281E+01 -1.400509321E+02  2.016153419E+02  1.250000000E+02  0.00000E+00  9.000E+00
      21     1     1     2   511   501  5.872227114E+00 -2.651616139E+00 -7.654542813E+01  7.681612257E+01  1.651812370E-06  0.00000E+00  9.000E+00
#rwgt            1           1   7.8182773535383901E-002           5      168756           0
</event>
<event>
      5   9999  3.79277E-02  6.37680E+01 -1.00000E+00  1.33305E-01
      21    -1     0     0   502   501  0.000000000E+00  0.000000000E+00  1.038680096E+03  1.038680096E+03  0.000000000E+00  0.00000E+00  9.000E+00
      21    -1     0     0   512   502  0.000000000E+00  0.000000000E+00 -1.075732441E+02  1.075732441E+02  0.000000000E+00  0.00000E+00  9.000E+00
      25     1     1     2     0     0  2.630211684E+02 -2.908738873E+00  4.066535529E+02  5.001806752E+02  1.250000000E+02  0.00000E+00  9.000E+00
      25     1     1     2     0     0 -2.279369630E+02  5.615771275E+01  5.176082538E+02  5.819383578E+02  1.250000000E+02  0.00000E+00  9.000E+00
      21     1     1     2   512   501 -3.508420541E+01 -5.324897388E+01  6.845045014E+00  6.413430696E+01  1.413019847E-06  0.00000E+00  9.000E+00
#rwgt            1           1   3.1359929285495448E-002           5      169004           0
</event>
<event>
      5   9999  3.79277E-02  7.06665E+01 -1.00000E+00  1.31013E-01
      21    -1     0     0   511   501  0.000000000E+00  0.000000000E+00  9.463846792E+02  9.463846792E+02  0.000000000E+00  0.00000E+00  9.000E+00
      21    -1     0     0   501   502  0.000000000E+00  0.000000000E+00 -6.947948512E+01  6.947948512E+01  0.000000000E+00  0.00000E+00  9.000E+00
      25     1     1     2     0     0  4.878504757E+01 -3.271277341E+01  5.491905638E+02  5.662908986E+02  1.250000000E+02  0.00000E+00  9.000E+00
      25     1     1     2     0     0 -6.834501717E+01 -3.519272946E+01  3.830851397E+01  1.516644712E+02  1.250000000E+02  0.00000E+00  9.000E+00
      21     1     1     2   511   502  1.955996960E+01  6.790550287E+01  2.894061163E+02  2.979087946E+02  5.394796609E-06  0.00000E+00  9.000E+00
#rwgt            1           1   4.9124571713636205E-002           5      169090           0
</event>
<event>
      5   9999  3.79277E-02  1.85607E+01 -1.00000E+00  1.69090E-01
      21    -1     0     0   502   501  0.000000000E+00  0.000000000E+00  3.499765670E+02  3.499765670E+02  0.000000000E+00  0.00000E+00  9.000E+00
      21    -1     0     0   512   502  0.000000000E+00  0.000000000E+00 -2.231270455E+02  2.231270455E+02  0.000000000E+00  0.00000E+00  9.000E+00
      25     1     1     2     0     0 -7.029879770E+01 -1.024226519E+02  2.598619294E+02  3.139833482E+02  1.250000000E+02  0.00000E+00  9.000E+00
      25     1     1     2     0     0  8.564311778E+01  1.128655047E+02 -8.411381437E+01  2.068175513E+02  1.250000000E+02  0.00000E+00  9.000E+00
      21     1     1     2   512   501 -1.534432008E+01 -1.044285278E+01 -4.889859350E+01  5.230271292E+01  0.000000000E+00  0.00000E+00  9.000E+00
#rwgt            1           1   3.6007656785103530E-002           5      169217           0
</event>
<event>
      5   9999  3.79277E-02  1.41057E+02 -1.00000E+00  1.17462E-01
      21    -1     0     0   502   501  0.000000000E+00  0.000000000E+00  2.088217246E+02  2.088217246E+02  0.000000000E+00  0.00000E+00  9.000E+00
       2    -1     0     0   501     0  0.000000000E+00  0.000000000E+00 -6.958645347E+02  6.958645347E+02  0.000000000E+00  0.00000E+00  9.000E+00
      25     1     1     2     0     0 -1.266766273E+02 -4.271169643E+01  1.173666553E+02  2.174193844E+02  1.250000000E+02  0.00000E+00  9.000E+00
      25     1     1     2     0     0 -9.196019508E+00  4.820841906E+00 -4.895429963E+02  5.053564608E+02  1.250000000E+02  0.00000E+00  9.000E+00
       2     1     1     2   502     0  1.358726468E+02  3.789085452E+01 -1.148664691E+02  1.819104140E+02  1.907348633E-06  0.00000E+00  9.000E+00
#rwgt            1           1   3.9246822505205670E-002           5      169377           0
</event>
<event>
      5   9999  3.79277E-02  2.00124E+02 -1.00000E+00  1.11638E-01
      21    -1     0     0   502   501  0.000000000E+00  0.000000000E+00  4.573282452E+02  4.573282452E+02  0.000000000E+00  0.00000E+00  9.000E+00
      21    -1     0     0   501   511  0.000000000E+00  0.000000000E+00 -4.781312366E+02  4.781312366E+02  0.000000000E+00  0.00000E+00  9.000E+00
      25     1     1     2     0     0 -1.552605761E+02  6.441978513E+01  3.128855911E+02  3.765343920E+02  1.250000000E+02  0.00000E+00  9.000E+00
      25     1     1     2     0     0  3.160574269E+01  9.293009132E+01  1.210814637E+01  1.593942661E+02  1.250000000E+02  0.00000E+00  9.000E+00
      21     1     1     2   502   511  1.236548334E+02 -1.573498765E+02 -3.457967288E+02  3.995308238E+02  3.814697266E-06  0.00000E+00  9.000E+00
#rwgt            2          11   3.0516367761470428E-003           5      169491           0
</event>
<event>
      5   9999  3.79277E-02  8.77348E+01 -1.00000E+00  1.26439E-01
      21    -1     0     0   502   512  0.000000000E+00  0.000000000E+00  2.531637221E+02  2.531637221E+02  0.000000000E+00  0.00000E+00  9.000E+00
      21    -1     0     0   501   502  0.000000000E+00  0.000000000E+00 -3.861762402E+02  3.861762402E+02  0.000000000E+00  0.00000E+00  9.000E+00
      25     1     1     2     0     0 -1.194894060E+02  7.900629883E+01 -2.741480956E+02  3.336193815E+02  1.250000000E+02  0.00000E+00  9.000E+00
      25     1     1     2     0     0  8.459179815E+01  1.489399629E+00  1.446280207E+01  1.516316697E+02  1.250000000E+02  0.00000E+00  9.000E+00
      21     1     1     2   501   512  3.489760781E+01 -8.049569846E+01  1.266727754E+02  1.540889111E+02  2.336015456E-06  0.00000E+00  9.000E+00
#rwgt            2          11   1.6643838958052177E-003           5      169826           0
</event>
<event>
      5   9999 -3.79277E-02  3.63437E+01 -1.00000E+00  1.47470E-01
      21    -1     0     0   502   501  0.000000000E+00  0.000000000E+00  1.558457941E+03  1.558457941E+03  0.000000000E+00  0.00000E+00  9.000E+00
      21    -1     0     0   501   511  0.000000000E+00  0.000000000E+00 -2.539569189E+01  2.539569189E+01  0.000000000E+00  0.00000E+00  9.000E+00
      25     1     1     2     0     0 -1.909081341E+01 -1.004693933E+02  4.727809934E+02  4.996052701E+02  1.250000000E+02  0.00000E+00  9.000E+00
      25     1     1     2     0     0 -1.038620320E+01  7.920976332E+01  1.016861338E+03  1.027625438E+03  1.250000000E+02  0.00000E+00  9.000E+00
      21     1     1     2   502   511  2.947701662E+01  2.125963002E+01  4.341991770E+01  5.662292495E+01  0.000000000E+00  0.00000E+00  9.000E+00
#rwgt            1           1 -0.13429349001534302                5      169846           0
</event>
<event>
      5   9999  3.79277E-02  1.04679E+02 -1.00000E+00  1.22941E-01
      21    -1     0     0   502   512  0.000000000E+00  0.000000000E+00  1.142543815E+02  1.142543815E+02  0.000000000E+00  0.00000E+00  9.000E+00
      21    -1     0     0   501   502  0.000000000E+00  0.000000000E+00 -6.281466273E+02  6.281466273E+02  0.000000000E+00  0.00000E+00  9.000E+00
      25     1     1     2     0     0 -1.096789047E+02 -1.414335886E+02 -3.184451113E+02  3.860896411E+02  1.250000000E+02  0.00000E+00  9.000E+00
      25     1     1     2     0     0  3.010614061E+01  7.341954175E+01 -2.031153745E+02  2.513516743E+02  1.250000000E+02  0.00000E+00  9.000E+00
      21     1     1     2   501   512  7.957276405E+01  6.801404681E+01  7.668239983E+00  1.049596934E+02  1.649660170E-06  0.00000E+00  9.000E+00
#rwgt            1           1   5.0895650310173762E-002           5      170046           0
</event>
<event>
      5   9999  3.79277E-02  4.65408E+01 -1.00000E+00  1.40876E-01
      21    -1     0     0   502   501  0.000000000E+00  0.000000000E+00  1.560966131E+02  1.560966131E+02  0.000000000E+00  0.00000E+00  9.000E+00
      21    -1     0     0   511   502  0.000000000E+00  0.000000000E+00 -7.426662951E+02  7.426662951E+02  0.000000000E+00  0.00000E+00  9.000E+00
      25     1     1     2     0     0  1.019458588E+02  2.214117461E+02 -2.102320147E+02  3.453094546E+02  1.250000000E+02  0.00000E+00  9.000E+00
      25     1     1     2     0     0 -1.469175441E+02 -2.094286265E+02 -1.489176477E+02  3.213200588E+02  1.250000000E+02  0.00000E+00  9.000E+00
      21     1     1     2   511   501  4.497168535E+01 -1.198311959E+01 -2.274200197E+02  2.321333948E+02  2.697398305E-06  0.00000E+00  9.000E+00
#rwgt            1           1   3.3579198338900260E-002           5      170115           0
</event>
<event>
      5   9999  3.79277E-02  2.55115E+01 -1.00000E+00  1.58095E-01
      21    -1     0     0   512   501  0.000000000E+00  0.000000000E+00  4.866104983E+02  4.866104983E+02  0.000000000E+00  0.00000E+00  9.000E+00
      21    -1     0     0   501   502  0.000000000E+00  0.000000000E+00 -1.402049916E+02  1.402049916E+02  0.000000000E+00  0.00000E+00  9.000E+00
      25     1     1     2     0     0 -6.989668780E+01 -5.540448185E+01 -7.087690666E+01  1.691264009E+02  1.250000000E+02  0.00000E+00  9.000E+00
      25     1     1     2     0     0  6.218706315E+01  7.972314803E+01  3.357401748E+02  3.722492124E+02  1.250000000E+02  0.00000E+00  9.000E+00
      21     1     1     2   512   502  7.709624645E+00 -2.431866618E+01  8.154223862E+01  8.543987662E+01  1.651812370E-06  0.00000E+00  9.000E+00
#rwgt            1           1   3.1511809702744323E-002           5      170214           0
</event>
<event>
      5   9999  3.79277E-02  7.16029E+01 -1.00000E+00  1.30725E-01
      21    -1     0     0   511   501  0.000000000E+00  0.000000000E+00  1.764877078E+03  1.764877078E+03  0.000000000E+00  0.00000E+00  9.000E+00
      21    -1     0     0   501   502  0.000000000E+00  0.000000000E+00 -3.635418810E+01  3.635418810E+01  0.000000000E+00  0.00000E+00  9.000E+00
      25     1     1     2     0     0 -8.438055742E-01 -1.017761926E+02  2.167113478E+02  2.700887144E+02  1.250000000E+02  0.00000E+00  9.000E+00
      25     1     1     2     0     0  6.841282125E+01  7.808220937E+01  1.214971397E+03  1.225788579E+03  1.250000000E+02  0.00000E+00  9.000E+00
      21     1     1     2   511   502 -6.756901568E+01  2.369398327E+01  2.968401455E+02  3.053539728E+02  3.814697266E-06  0.00000E+00  9.000E+00
#rwgt            1           1   3.3015872748479523E-002           5      170371           0
</event>
<event>
      5   9999  3.79277E-02  2.23929E+02 -1.00000E+00  1.09890E-01
      21    -1     0     0   502   501  0.000000000E+00  0.000000000E+00  1.607593409E+02  1.607593409E+02  0.000000000E+00  0.00000E+00  9.000E+00
      21    -1     0     0   501   512  0.000000000E+00  0.000000000E+00 -7.450768215E+02  7.450768215E+02  0.000000000E+00  0.00000E+00  9.000E+00
      25     1     1     2     0     0  1.053038779E+01  2.006766485E+01 -7.276055635E+01  1.463991079E+02  1.250000000E+02  0.00000E+00  9.000E+00
      25     1     1     2     0     0 -1.383622497E+02 -2.039239978E+02 -1.055960760E+02  2.958118326E+02  1.250000000E+02  0.00000E+00  9.000E+00
      21     1     1     2   502   512  1.278318619E+02  1.838563329E+02 -4.059608483E+02  4.636252219E+02  0.000000000E+00  0.00000E+00  9.000E+00
#rwgt            1           1   3.7265435606821697E-002           5      170564           0
</event>
<event>
      5   9999  3.79277E-02  2.28966E+01 -1.00000E+00  1.61664E-01
      21    -1     0     0   502   501  0.000000000E+00  0.000000000E+00  5.005401646E+02  5.005401646E+02  0.000000000E+00  0.00000E+00  9.000E+00
      21    -1     0     0   501   511  0.000000000E+00  0.000000000E+00 -7.808828226E+01  7.808828226E+01  0.000000000E+00  0.00000E+00  9.000E+00
      25     1     1     2     0     0  9.994045549E+01  6.607116160E+01  9.400763299E+01  1.970175832E+02  1.250000000E+02  0.00000E+00  9.000E+00
      25     1     1     2     0     0 -7.704950010E+01 -6.657954170E+01  3.178056070E+02  3.563633885E+02  1.250000000E+02  0.00000E+00  9.000E+00
      21     1     1     2   502   511 -2.289095539E+01  5.083800968E-01  1.063864237E+01  2.524747513E+01  3.371747881E-07  0.00000E+00  9.000E+00
#rwgt            1           1   4.4824407211728493E-002           5      170639           0
</event>
<event>
      5   9999  3.79277E-02  2.51268E+01 -1.00000E+00  1.58587E-01
      21    -1     0     0   502   501  0.000000000E+00  0.000000000E+00  1.333157600E+03  1.333157600E+03  0.000000000E+00  0.00000E+00  9.000E+00
      21    -1     0     0   512   502  0.000000000E+00  0.000000000E+00 -3.046159923E+01  3.046159923E+01  0.000000000E+00  0.00000E+00  9.000E+00
      25     1     1     2     0     0 -9.664548573E+01  5.956511875E+01  3.819126526E+02  4.175770917E+02  1.250000000E+02  0.00000E+00  9.000E+00
      25     1     1     2     0     0  8.078783520E+01 -4.007437368E+01  9.009260730E+02  9.140160932E+02  1.250000000E+02  0.00000E+00  9.000E+00
      21     1     1     2   512   501  1.585765053E+01 -1.949074507E+01  1.985727561E+01  3.202601472E+01  7.907449699E-07  0.00000E+00  9.000E+00
#rwgt            1           1   5.7631568968344947E-002           5      170729           0
</event>
<event>
      5   9999  3.79277E-02  1.66183E+02 -1.00000E+00  1.14657E-01
      21    -1     0     0   511   501  0.000000000E+00  0.000000000E+00  9.216523701E+02  9.216523701E+02  0.000000000E+00  0.00000E+00  9.000E+00
      21    -1     0     0   501   502  0.000000000E+00  0.000000000E+00 -1.749330081E+03  1.749330081E+03  0.000000000E+00  0.00000E+00  9.000E+00
      25     1     1     2     0     0 -5.609090179E+01 -1.842467150E+01  1.867530870E+01  1.394970428E+02  1.250000000E+02  0.00000E+00  9.000E+00
      25     1     1     2     0     0 -1.092744740E+02  3.489339127E+01 -1.676401560E+03  1.684964584E+03  1.250000000E+02  0.00000E+00  9.000E+00
      21     1     1     2   511   502  1.653653757E+02 -1.646871977E+01  8.300485404E+02  8.465208241E+02  0.000000000E+00  0.00000E+00  9.000E+00
#rwgt            1           1   1.5192096153331438E-002           5      170888           0
</event>
<event>
      5   9999  3.79277E-02  7.80613E+00 -1.00000E+00  2.09073E-01
      21    -1     0     0   512   501  0.000000000E+00  0.000000000E+00  2.425988190E+02  2.425988190E+02  0.000000000E+00  0.00000E+00  9.000E+00
      21    -1     0     0   501   502  0.000000000E+00  0.000000000E+00 -2.929293893E+02  2.929293893E+02  0.000000000E+00  0.00000E+00  9.000E+00
      25     1     1     2     0     0  4.119429955E+01  4.483221494E+01  1.958033284E+02  2.401475406E+02  1.250000000E+02  0.00000E+00  9.000E+00
      25     1     1     2     0     0 -3.808117194E+01 -5.199071375E+01 -2.498684951E+02  2.867271784E+02  1.250000000E+02  0.00000E+00  9.000E+00
      21     1     1     2   512   502 -3.113127611E+00  7.158498808E+00  3.734596395E+00  8.653489408E+00  1.032382731E-07  0.00000E+00  9.000E+00
#rwgt            1           1   4.6265124320063536E-002           5      171047           0
</event>
<event>
      5   9999  3.79277E-02  9.70734E+00 -1.00000E+00  1.97260E-01
      21    -1     0     0   511   501  0.000000000E+00  0.000000000E+00  4.924003514E+01  4.924003514E+01  0.000000000E+00  0.00000E+00  9.000E+00
      21    -1     0     0   501   502  0.000000000E+00  0.000000000E+00 -1.217621772E+03  1.217621772E+03  0.000000000E+00  0.00000E+00  9.000E+00
      25     1     1     2     0     0  7.003619880E+01  3.640092016E+01 -9.180767642E+01  1.740222560E+02  1.250000000E+02  0.00000E+00  9.000E+00
      25     1     1     2     0     0 -6.262051444E+01 -3.013672390E+01 -1.073008736E+03  1.082498175E+03  1.250000000E+02  0.00000E+00  9.000E+00
      21     1     1     2   511   502 -7.415684355E+00 -6.264196261E+00 -3.565324674E+00  1.034137657E+01  2.795705652E-07  0.00000E+00  9.000E+00
#rwgt            1           1   4.4681227956330186E-002           5      171412           0
</event>
<event>
      5   9999  3.79277E-02  2.84658E+01 -1.00000E+00  1.54640E-01
      21    -1     0     0   512   501  0.000000000E+00  0.000000000E+00  4.695868305E+02  4.695868305E+02  0.000000000E+00  0.00000E+00  9.000E+00
      21    -1     0     0   501   502  0.000000000E+00  0.000000000E+00 -1.606299447E+02  1.606299447E+02  0.000000000E+00  0.00000E+00  9.000E+00
      25     1     1     2     0     0 -8.118836461E+01 -1.624907097E+02  1.410532781E+02  2.617552455E+02  1.250000000E+02  0.00000E+00  9.000E+00
      25     1     1     2     0     0  5.385618498E+01  1.704439438E+02  2.134329773E+01  2.191624124E+02  1.250000000E+02  0.00000E+00  9.000E+00
      21     1     1     2   512   502  2.733217963E+01 -7.953234179E+00  1.465603100E+02  1.492991173E+02  1.907348633E-06  0.00000E+00  9.000E+00
#rwgt            1           1   3.9283168615135568E-002           5      171611           0
</event>
<event>
      5   9999  3.79277E-02  4.94506E+01 -1.00000E+00  1.39350E-01
      21    -1     0     0   502   501  0.000000000E+00  0.000000000E+00  5.137642317E+02  5.137642317E+02  0.000000000E+00  0.00000E+00  9.000E+00
      21    -1     0     0   501   511  0.000000000E+00  0.000000000E+00 -2.416991862E+02  2.416991862E+02  0.000000000E+00  0.00000E+00  9.000E+00
      25     1     1     2     0     0  2.856689938E+02  8.266122297E+01  1.640895656E+02  3.619254583E+02  1.250000000E+02  0.00000E+00  9.000E+00
      25     1     1     2     0     0 -3.019303362E+02 -3.596076511E+01  9.843229687E+01  3.431749140E+02  1.250000000E+02  0.00000E+00  9.000E+00
      21     1     1     2   502   511  1.626134239E+01 -4.670045786E+01  9.543183056E+00  5.036304561E+01  9.902267293E-07  0.00000E+00  9.000E+00
#rwgt            1           1   2.5036766222902081E-002           5      171765           0
</event>
<event>
      5   9999  3.79277E-02  5.14123E+01 -1.00000E+00  1.38389E-01
      21    -1     0     0   502   501  0.000000000E+00  0.000000000E+00  2.145397544E+02  2.145397544E+02  0.000000000E+00  0.00000E+00  9.000E+00
      -3    -1     0     0     0   502  0.000000000E+00  0.000000000E+00 -4.167090487E+02  4.167090487E+02  0.000000000E+00  0.00000E+00  9.000E+00
      25     1     1     2     0     0 -4.692017174E+01 -1.662831958E+02  2.146828772E+01  2.143303317E+02  1.250000000E+02  0.00000E+00  9.000E+00
      25     1     1     2     0     0  9.829875319E+01  1.644216735E+02 -4.775027082E+01  2.336711792E+02  1.250000000E+02  0.00000E+00  9.000E+00
      -3     1     1     2     0   501 -5.137858145E+01  1.861522241E+00 -1.758873112E+02  1.832472923E+02  0.000000000E+00  0.00000E+00  9.000E+00
#rwgt            1           1   3.4443970146186151E-002           5      171883           0
</event>
<event>
      5   9999  3.79277E-02  3.91172E+01 -1.00000E+00  1.45444E-01
      -2    -1     0     0     0   501  0.000000000E+00  0.000000000E+00  3.287081730E+02  3.287081730E+02  0.000000000E+00  0.00000E+00  9.000E+00
      21    -1     0     0   501   502  0.000000000E+00  0.000000000E+00 -5.536224216E+02  5.536224216E+02  0.000000000E+00  0.00000E+00  9.000E+00
      25     1     1     2     0     0  1.407661265E+02 -1.411606836E+02 -2.682121433E+02  3.567971339E+02  1.250000000E+02  0.00000E+00  9.000E+00
      25     1     1     2     0     0 -1.749486482E+02  1.221420560E+02 -1.755205822E+02  3.032460818E+02  1.250000000E+02  0.00000E+00  9.000E+00
      -2     1     1     2     0   502  3.418252167E+01  1.901862756E+01  2.188184769E+02  2.222873789E+02  2.697398305E-06  0.00000E+00  9.000E+00
#rwgt            1           1   6.8449380407268640E-002           5      172394           0
</event>
<event>
      5   9999  3.79277E-02  1.23568E+02 -1.00000E+00  1.19831E-01
       2    -1     0     0   502     0  0.000000000E+00  0.000000000E+00  2.239985048E+03  2.239985048E+03  0.000000000E+00  0.00000E+00  9.000E+00
      21    -1     0     0   501   502  0.000000000E+00  0.000000000E+00 -1.055003206E+02  1.055003206E+02  0.000000000E+00  0.00000E+00  9.000E+00
      25     1     1     2     0     0 -2.026042606E+02  1.220790900E+01  7.455316009E+01  2.497612723E+02  1.250000000E+02  0.00000E+00  9.000E+00
      25     1     1     2     0     0  1.549347009E+02  1.017954725E+02  8.295761502E+02  8.591790668E+02  1.250000000E+02  0.00000E+00  9.000E+00
       2     1     1     2   501     0  4.766955966E+01 -1.140033815E+02  1.230355417E+03  1.236545029E+03  3.051757812E-05  0.00000E+00  9.000E+00
#rwgt            1           1   2.4224343048731844E-002           5      172601           0
</event>
<event>
      5   9999  3.79277E-02  7.94780E+01 -1.00000E+00  1.28487E-01
      21    -1     0     0   502   501  0.000000000E+00  0.000000000E+00  4.231258426E+02  4.231258426E+02  0.000000000E+00  0.00000E+00  9.000E+00
      21    -1     0     0   511   502  0.000000000E+00  0.000000000E+00 -2.080368977E+02  2.080368977E+02  0.000000000E+00  0.00000E+00  9.000E+00
      25     1     1     2     0     0 -7.462873963E+01 -1.780809540E+02  7.904949544E+01  2.432202657E+02  1.250000000E+02  0.00000E+00  9.000E+00
      25     1     1     2     0     0  4.602656142E+01  1.039279929E+02  2.166504322E+02  2.747396620E+02  1.250000000E+02  0.00000E+00  9.000E+00
      21     1     1     2   511   501  2.860217820E+01  7.415296101E+01 -8.061098283E+01  1.132028126E+02  2.132480600E-06  0.00000E+00  9.000E+00
#rwgt            1           1   3.0394785707815807E-002           5      172690           0
</event>
<event>
      5   9999  3.79277E-02  6.94837E+01 -1.00000E+00  1.31384E-01
      21    -1     0     0   502   501  0.000000000E+00  0.000000000E+00  1.257641708E+02  1.257641708E+02  0.000000000E+00  0.00000E+00  9.000E+00
      21    -1     0     0   512   502  0.000000000E+00  0.000000000E+00 -7.812679469E+02  7.812679469E+02  0.000000000E+00  0.00000E+00  9.000E+00
      25     1     1     2     0     0  5.077184374E+01  1.760556164E+02 -3.678248226E+01  2.248361875E+02  1.250000000E+02  0.00000E+00  9.000E+00
      25     1     1     2     0     0  1.847427307E+01 -1.703148191E+02 -4.005320266E+02  4.532100404E+02  1.250000000E+02  0.00000E+00  9.000E+00
      21     1     1     2   512   501 -6.924611681E+01 -5.740797336E+00 -2.181892672E+02  2.289858899E+02  3.814697266E-06  0.00000E+00  9.000E+00
#rwgt            1           1   4.0112926895723627E-002           5      172798           0
</event>
<event>
      5   9999  3.79277E-02  3.92111E+01 -1.00000E+00  1.45379E-01
      21    -1     0     0   502   511  0.000000000E+00  0.000000000E+00  6.842698338E+02  6.842698338E+02  0.000000000E+00  0.00000E+00  9.000E+00
      21    -1     0     0   501   502  0.000000000E+00  0.000000000E+00 -2.139122972E+02  2.139122972E+02  0.000000000E+00  0.00000E+00  9.000E+00
      25     1     1     2     0     0  1.966013537E+02  1.322543197E+02 -6.342296353E+01  2.753012344E+02  1.250000000E+02  0.00000E+00  9.000E+00
      25     1     1     2     0     0 -1.596049088E+02 -1.452454831E+02  3.208690621E+02  4.063888929E+02  1.250000000E+02  0.00000E+00  9.000E+00
      21     1     1     2   501   511 -3.699644493E+01  1.299116343E+01  2.129114380E+02  2.164920038E+02  2.697398305E-06  0.00000E+00  9.000E+00
#rwgt            1           1   2.8526694055138045E-002           5      172895           0
</event>
<event>
      5   9999  3.79277E-02  8.78235E+01 -1.00000E+00  1.26418E-01
       2    -1     0     0   502     0  0.000000000E+00  0.000000000E+00  1.455494697E+03  1.455494697E+03  0.000000000E+00  0.00000E+00  9.000E+00
      21    -1     0     0   501   502  0.000000000E+00  0.000000000E+00 -2.835037823E+02  2.835037823E+02  0.000000000E+00  0.00000E+00  9.000E+00
      25     1     1     2     0     0  3.009430574E+01 -1.136373829E+01 -1.827664295E+02  2.237484515E+02  1.250000000E+02  0.00000E+00  9.000E+00
      25     1     1     2     0     0  1.015586668E+01  8.942067117E+01 -3.588140096E+00  1.540684030E+02  1.250000000E+02  0.00000E+00  9.000E+00
       2     1     1     2   501     0 -4.025017242E+01 -7.805693288E+01  1.358345484E+03  1.361181624E+03  0.000000000E+00  0.00000E+00  9.000E+00
#rwgt            1           1   5.5420648047968986E-002           5      173124           0
</event>
<event>
      5   9999  3.79277E-02  1.91710E+02 -1.00000E+00  1.12321E-01
      21    -1     0     0   502   501  0.000000000E+00  0.000000000E+00  6.277542087E+02  6.277542087E+02  0.000000000E+00  0.00000E+00  9.000E+00
      21    -1     0     0   511   502  0.000000000E+00  0.000000000E+00 -2.989347607E+02  2.989347607E+02  0.000000000E+00  0.00000E+00  9.000E+00
      25     1     1     2     0     0  1.122789555E+02  2.224305629E+02 -5.831179530E+01  2.847932313E+02  1.250000000E+02  0.00000E+00  9.000E+00
      25     1     1     2     0     0 -8.806132974E-01 -6.640717505E+01  4.237090431E+02  4.467270325E+02  1.250000000E+02  0.00000E+00  9.000E+00
      21     1     1     2   511   501 -1.113983422E+02 -1.560233878E+02 -3.657779981E+01  1.951687056E+02  1.651812370E-06  0.00000E+00  9.000E+00
#rwgt            1           1   4.4547631267604859E-002           5      173416           0
</event>
<event>
      5   9999  3.79277E-02  7.74475E+01 -1.00000E+00  1.29035E-01
      21    -1     0     0   502   501  0.000000000E+00  0.000000000E+00  9.882392951E+02  9.882392951E+02  0.000000000E+00  0.00000E+00  9.000E+00
      21    -1     0     0   501   512  0.000000000E+00  0.000000000E+00 -3.014068401E+02  3.014068401E+02  0.000000000E+00  0.00000E+00  9.000E+00
      25     1     1     2     0     0  2.029730990E+02 -4.301850835E+01  4.642473344E+02  5.236403904E+02  1.250000000E+02  0.00000E+00  9.000E+00
      25     1     1     2     0     0 -2.328357540E+02  1.144771972E+02  4.452403449E+02  5.302654823E+02  1.250000000E+02  0.00000E+00  9.000E+00
      21     1     1     2   502   512  2.986265497E+01 -7.145868883E+01 -2.226552244E+02  2.357402624E+02  3.814697266E-06  0.00000E+00  9.000E+00
#rwgt            1           1   3.9141947067544890E-002           5      173475           0
</event>
<event>
      5   9999 -3.79277E-02  5.61103E+01 -1.00000E+00  1.36278E-01
      -2    -1     0     0     0   501  0.000000000E+00  0.000000000E+00  1.022108497E+03  1.022108497E+03  0.000000000E+00  0.00000E+00  9.000E+00
      21    -1     0     0   501   502  0.000000000E+00  0.000000000E+00 -9.401813624E+01  9.401813624E+01  0.000000000E+00  0.00000E+00  9.000E+00
      25     1     1     2     0     0 -1.578646989E+02 -9.948484516E+01  1.492597662E+02  2.696701233E+02  1.250000000E+02  0.00000E+00  9.000E+00
      25     1     1     2     0     0  1.562788109E+02  1.555727721E+02  4.842465935E+02  5.465763602E+02  1.250000000E+02  0.00000E+00  9.000E+00
      -2     1     1     2     0   502  1.585887937E+00 -5.608792694E+01  2.945840013E+02  2.998801501E+02  3.814697266E-06  0.00000E+00  9.000E+00
#rwgt            1           1  -7.5556687789003332E-002           5      173761           0
</event>
<event>
      5   9999  3.79277E-02  5.10182E+01 -1.00000E+00  1.38578E-01
      21    -1     0     0   511   501  0.000000000E+00  0.000000000E+00  6.529985570E+01  6.529985570E+01  0.000000000E+00  0.00000E+00  9.000E+00
      21    -1     0     0   501   502  0.000000000E+00  0.000000000E+00 -7.699220203E+02  7.699220203E+02  0.000000000E+00  0.00000E+00  9.000E+00
      25     1     1     2     0     0  1.376124163E+02  1.335886300E+01 -4.242988460E+02  4.634330017E+02  1.250000000E+02  0.00000E+00  9.000E+00
      25     1     1     2     0     0 -1.303423114E+02 -6.385641932E+01 -2.025935774E+02  2.788116175E+02  1.250000000E+02  0.00000E+00  9.000E+00
      21     1     1     2   511   502 -7.270104952E+00  5.049755632E+01 -7.772974117E+01  9.297725681E+01  9.536743164E-07  0.00000E+00  9.000E+00
#rwgt            1           1   3.5426826277716809E-002           5      173830           0
</event>
<event>
      5   9999  3.79277E-02  5.61613E+01 -1.00000E+00  1.36256E-01
      21    -1     0     0   502   512  0.000000000E+00  0.000000000E+00  5.708505445E+02  5.708505445E+02  0.000000000E+00  0.00000E+00  9.000E+00
      21    -1     0     0   501   502  0.000000000E+00  0.000000000E+00 -1.186390900E+02  1.186390900E+02  0.000000000E+00  0.00000E+00  9.000E+00
      25     1     1     2     0     0 -2.804089530E+01  1.039883032E+02 -3.085938474E+00  1.650284279E+02  1.250000000E+02  0.00000E+00  9.000E+00
      25     1     1     2     0     0  1.721773189E+01 -1.590968216E+02  3.753991283E+02  4.267994312E+02  1.250000000E+02  0.00000E+00  9.000E+00
      21     1     1     2   501   512  1.082316341E+01  5.510851844E+01  7.989826466E+01  9.766177536E+01  1.651812370E-06  0.00000E+00  9.000E+00
#rwgt            1           1   4.1050410882965696E-002           5      173970           0
</event>
<event>
      5   9999  3.79277E-02  4.53677E+01 -1.00000E+00  1.41528E-01
      21    -1     0     0   511   501  0.000000000E+00  0.000000000E+00  1.459306152E+02  1.459306152E+02  0.000000000E+00  0.00000E+00  9.000E+00
      21    -1     0     0   501   502  0.000000000E+00  0.000000000E+00 -2.147752737E+03  2.147752737E+03  0.000000000E+00  0.00000E+00  9.000E+00
      25     1     1     2     0     0  7.278049314E+01 -3.900450060E+01 -1.897340020E+03  1.903245256E+03  1.250000000E+02  0.00000E+00  9.000E+00
      25     1     1     2     0     0 -8.579777772E+01  8.246454994E+01 -2.122188542E+02  2.735388505E+02  1.250000000E+02  0.00000E+00  9.000E+00
      21     1     1     2   511   502  1.301728459E+01 -4.346004934E+01  1.077367531E+02  1.168992454E+02  3.303624740E-06  0.00000E+00  9.000E+00
#rwgt            1           1  0.10808457977160058                5      174080           0
</event>
<event>
      5   9999  3.79277E-02  8.14097E+01 -1.00000E+00  1.27983E-01
      21    -1     0     0   502   501  0.000000000E+00  0.000000000E+00  1.203391127E+02  1.203391127E+02  0.000000000E+00  0.00000E+00  9.000E+00
      21    -1     0     0   512   502  0.000000000E+00  0.000000000E+00 -1.059833633E+03  1.059833633E+03  0.000000000E+00  0.00000E+00  9.000E+00
      25     1     1     2     0     0  5.580172459E+01  1.293590105E+02 -1.017733886E+02  2.140803791E+02  1.250000000E+02  0.00000E+00  9.000E+00
      25     1     1     2     0     0 -1.096098499E+02 -6.826702358E+01 -6.812083885E+01  1.921982164E+02  1.250000000E+02  0.00000E+00  9.000E+00
      21     1     1     2   512   501  5.380812528E+01 -6.109198690E+01 -7.696002929E+02  7.738941504E+02  0.000000000E+00  0.00000E+00  9.000E+00
#rwgt            1           1   2.8916531508162938E-002           5      174262           0
</event>
<event>
      5   9999  3.79277E-02  2.28534E+01 -1.00000E+00  1.61728E-01
      21    -1     0     0   502   511  0.000000000E+00  0.000000000E+00  5.439446622E+02  5.439446622E+02  0.000000000E+00  0.00000E+00  9.000E+00
      21    -1     0     0   501   502  0.000000000E+00  0.000000000E+00 -1.914532441E+02  1.914532441E+02  0.000000000E+00  0.00000E+00  9.000E+00
      25     1     1     2     0     0 -4.424771358E+01  2.371299194E+02  1.674797352E+01  2.722020453E+02  1.250000000E+02  0.00000E+00  9.000E+00
      25     1     1     2     0     0  2.432892068E+01 -2.483335266E+02  2.507468361E+02  3.751805068E+02  1.250000000E+02  0.00000E+00  9.000E+00
      21     1     1     2   501   511  1.991879290E+01  1.120360723E+01  8.499660851E+01  8.801535425E+01  1.348699152E-06  0.00000E+00  9.000E+00
#rwgt            1           1   3.2916207598293404E-002           5      174515           0
</event>
<event>
      5   9999  3.79277E-02  5.77535E+01 -1.00000E+00  1.35595E-01
       2    -1     0     0   502     0  0.000000000E+00  0.000000000E+00  2.841886905E+03  2.841886905E+03  0.000000000E+00  0.00000E+00  9.000E+00
      21    -1     0     0   501   502  0.000000000E+00  0.000000000E+00 -5.451104645E+01  5.451104645E+01  0.000000000E+00  0.00000E+00  9.000E+00
      25     1     1     2     0     0 -9.845840153E+01 -1.064725547E+02  5.170413050E+02  5.513503177E+02  1.250000000E+02  0.00000E+00  9.000E+00
      25     1     1     2     0     0  9.792225893E+01  4.872157036E+01  1.496235318E+02  2.235503556E+02  1.250000000E+02  0.00000E+00  9.000E+00
       2     1     1     2   501     0  5.361425989E-01  5.775098431E+01  2.120711022E+03  2.121497278E+03  4.315837288E-05  0.00000E+00  9.000E+00
#rwgt            1           1  0.12911687920320825                5      174708           0
</event>
<event>
      5   9999  3.79277E-02  1.57205E+01 -1.00000E+00  1.75485E-01
      21    -1     0     0   502   511  0.000000000E+00  0.000000000E+00  1.709492331E+02  1.709492331E+02  0.000000000E+00  0.00000E+00  9.000E+00
      21    -1     0     0   501   502  0.000000000E+00  0.000000000E+00 -1.264815455E+03  1.264815455E+03  0.000000000E+00  0.00000E+00  9.000E+00
      25     1     1     2     0     0 -5.425907004E+01  1.188065944E+02 -1.837154355E+02  2.577506834E+02  1.250000000E+02  0.00000E+00  9.000E+00
      25     1     1     2     0     0  5.329001595E+01 -1.344971718E+02 -1.034831942E+03  1.052345695E+03  1.250000000E+02  0.00000E+00  9.000E+00
      21     1     1     2   501   511  9.690540984E-01  1.569057732E+01  1.246811557E+02  1.256683090E+02  2.336015456E-06  0.00000E+00  9.000E+00
#rwgt            1           1   3.3472289086142949E-002           5      174850           0
</event>
<event>
      5   9999  3.79277E-02  2.38158E+01 -1.00000E+00  1.60346E-01
      21    -1     0     0   512   501  0.000000000E+00  0.000000000E+00  1.631591922E+02  1.631591922E+02  0.000000000E+00  0.00000E+00  9.000E+00
      21    -1     0     0   501   502  0.000000000E+00  0.000000000E+00 -6.482642765E+02  6.482642765E+02  0.000000000E+00  0.00000E+00  9.000E+00
      25     1     1     2     0     0 -1.145443221E+02 -8.474740399E+00 -3.343896584E+02  3.750115553E+02  1.250000000E+02  0.00000E+00  9.000E+00
      25     1     1     2     0     0  1.004517937E+02  2.767355008E+01 -2.697413954E+02  3.150266793E+02  1.250000000E+02  0.00000E+00  9.000E+00
      21     1     1     2   512   502  1.409252840E+01 -1.919880968E+01  1.190259695E+02  1.213852341E+02  1.907348633E-06  0.00000E+00  9.000E+00
#rwgt            1           1   2.8805019865352929E-002           5      175285           0
</event>
<event>
      5   9999  3.79277E-02  1.38080E+02 -1.00000E+00  1.17837E-01
      21    -1     0     0   502   501  0.000000000E+00  0.000000000E+00  9.453678739E+01  9.453678739E+01  0.000000000E+00  0.00000E+00  9.000E+00
      21    -1     0     0   511   502  0.000000000E+00  0.000000000E+00 -8.963602601E+02  8.963602601E+02  0.000000000E+00  0.00000E+00  9.000E+00
      25     1     1     2     0     0  1.865686239E+02  1.040869219E+01 -2.265454536E+02  3.191614557E+02  1.250000000E+02  0.00000E+00  9.000E+00
      25     1     1     2     0     0 -9.513472142E+01 -1.138779923E+02 -2.365216182E+02  3.059187608E+02  1.250000000E+02  0.00000E+00  9.000E+00
      21     1     1     2   511   501 -9.143390250E+01  1.034693001E+02 -3.387564009E+02  3.658168309E+02  3.814697266E-06  0.00000E+00  9.000E+00
#rwgt            1           1   3.4075143552945178E-002           5      175404           0
</event>
<event>
      5   9999  3.79277E-02  9.30877E+01 -1.00000E+00  1.25243E-01
      21    -1     0     0   502   501  0.000000000E+00  0.000000000E+00  1.715001435E+03  1.715001435E+03  0.000000000E+00  0.00000E+00  9.000E+00
      21    -1     0     0   501   512  0.000000000E+00  0.000000000E+00 -1.067707173E+02  1.067707173E+02  0.000000000E+00  0.00000E+00  9.000E+00
      25     1     1     2     0     0 -7.359130642E+01 -3.129478578E+02  5.606151531E+02  6.582297410E+02  1.250000000E+02  0.00000E+00  9.000E+00
      25     1     1     2     0     0 -1.911687404E+01  3.045508173E+02  1.011157292E+03  1.063569802E+03  1.250000000E+02  0.00000E+00  9.000E+00
      21     1     1     2   502   512  9.270818046E+01  8.397040592E+00  3.645827340E+01  9.997260983E+01  2.523185073E-06  0.00000E+00  9.000E+00
#rwgt            1           1   3.1803493618008459E-002           5      175460           0
</event>
<event>
      5   9999  3.79277E-02  1.11667E+01 -1.00000E+00  1.90376E-01
      21    -1     0     0   511   501  0.000000000E+00  0.000000000E+00  1.045823452E+02  1.045823452E+02  0.000000000E+00  0.00000E+00  9.000E+00
      21    -1     0     0   501   502  0.000000000E+00  0.000000000E+00 -8.391617674E+02  8.391617674E+02  0.000000000E+00  0.00000E+00  9.000E+00
      25     1     1     2     0     0 -1.544421267E+02  1.991048263E+02 -2.498836790E+02  3.762471999E+02  1.250000000E+02  0.00000E+00  9.000E+00
      25     1     1     2     0     0  1.478227343E+02 -1.901115891E+02 -4.856341810E+02  5.562908725E+02  1.250000000E+02  0.00000E+00  9.000E+00
      21     1     1     2   511   502  6.619392457E+00 -8.993237173E+00  9.384377797E-01  1.120604019E+01  1.591008641E-07  0.00000E+00  9.000E+00
#rwgt            1           1   3.9445012419382364E-002           5      175641           0
</event>
<event>
      5   9999  3.79277E-02  4.30870E+01 -1.00000E+00  1.42866E-01
      21    -1     0     0   512   501  0.000000000E+00  0.000000000E+00  4.004700679E+02  4.004700679E+02  0.000000000E+00  0.00000E+00  9.000E+00
      21    -1     0     0   501   502  0.000000000E+00  0.000000000E+00 -1.153348063E+02  1.153348063E+02  0.000000000E+00  0.00000E+00  9.000E+00
      25     1     1     2     0     0 -2.979231407E+01  1.107589615E+02 -4.934481342E+00  1.697188223E+02  1.250000000E+02  0.00000E+00  9.000E+00
      25     1     1     2     0     0  3.082773293E+01 -6.768445404E+01  2.163676176E+02  2.607134066E+02  1.250000000E+02  0.00000E+00  9.000E+00
      21     1     1     2   512   502 -1.035418868E+00 -4.307450746E+01  7.370212538E+01  8.537264533E+01  0.000000000E+00  0.00000E+00  9.000E+00
#rwgt            1           1   2.8294759161023822E-002           5      175892           0
</event>
<event>
      5   9999  3.79277E-02  2.70600E+01 -1.00000E+00  1.56218E-01
      21    -1     0     0   502   501  0.000000000E+00  0.000000000E+00  2.407099732E+02  2.407099732E+02  0.000000000E+00  0.00000E+00  9.000E+00
      21    -1     0     0   511   502  0.000000000E+00  0.000000000E+00 -2.179054354E+02  2.179054354E+02  0.000000000E+00  0.00000E+00  9.000E+00
      25     1     1     2     0     0  1.564191651E+02  2.814478641E+01  7.090836720E+01  2.142710451E+02  1.250000000E+02  0.00000E+00  9.000E+00
      25     1     1     2     0     0 -1.496907792E+02 -1.934664536E+00 -7.026342395E+00  1.951549174E+02  1.250000000E+02  0.00000E+00  9.000E+00
      21     1     1     2   511   501 -6.728385924E+00 -2.621012188E+01 -4.107748704E+01  4.918944610E+01  6.743495762E-07  0.00000E+00  9.000E+00
#rwgt            1           1   2.9151238742036137E-002           5      175991           0
</event>
<event>
      5   9999  3.79277E-02  3.79316E+01 -1.00000E+00  1.46285E-01
      21    -1     0     0   502   512  0.000000000E+00  0.000000000E+00  1.042063309E+03  1.042063309E+03  0.000000000E+00  0.00000E+00  9.000E+00
      21    -1     0     0   501   502  0.000000000E+00  0.000000000E+00 -5.666229627E+01  5.666229627E+01  0.000000000E+00  0.00000E+00  9.000E+00
      25     1     1     2     0     0 -2.989448328E+00  7.197642213E+00  3.861415488E+01  1.310602755E+02  1.250000000E+02  0.00000E+00  9.000E+00
      25     1     1     2     0     0 -3.492832481E+01 -6.172934259E+00  4.229951983E+02  4.425020122E+02  1.250000000E+02  0.00000E+00  9.000E+00
      21     1     1     2   501   512  3.791777314E+01 -1.024707954E+00  5.237916597E+02  5.251633178E+02  1.321449896E-05  0.00000E+00  9.000E+00
#rwgt            1           1   3.8738328341944878E-002           5      176169           0
</event>
<event>
      5   9999  3.79277E-02  7.95339E+01 -1.00000E+00  1.28472E-01
      21    -1     0     0   511   501  0.000000000E+00  0.000000000E+00  2.439017126E+02  2.439017126E+02  0.000000000E+00  0.00000E+00  9.000E+00
      21    -1     0     0   501   502  0.000000000E+00  0.000000000E+00 -3.291359865E+02  3.291359865E+02  0.000000000E+00  0.00000E+00  9.000E+00
      25     1     1     2     0     0  9.334466020E+01  6.776697326E+01 -2.372478025E+02  2.919196945E+02  1.250000000E+02  0.00000E+00  9.000E+00
      25     1     1     2     0     0 -1.544220842E+01 -5.174042231E+01  3.667577822E+01  1.410164735E+02  1.250000000E+02  0.00000E+00  9.000E+00
      21     1     1     2   511   502 -7.790245178E+01 -1.602655095E+01  1.153377504E+02  1.401015310E+02  1.907348633E-06  0.00000E+00  9.000E+00
#rwgt            1           1   4.0885579667731396E-002           5      176273           0
</event>
<event>
      5   9999  3.79277E-02  1.12543E+01 -1.00000E+00  1.90006E-01
      21    -1     0     0   502   501  0.000000000E+00  0.000000000E+00  1.556484675E+02  1.556484675E+02  0.000000000E+00  0.00000E+00  9.000E+00
      21    -1     0     0   512   502  0.000000000E+00  0.000000000E+00 -4.772067284E+02  4.772067284E+02  0.000000000E+00  0.00000E+00  9.000E+00
      25     1     1     2     0     0  1.284192203E+02 -4.484877921E+01 -3.578426632E+02  4.027148877E+02  1.250000000E+02  0.00000E+00  9.000E+00
      25     1     1     2     0     0 -1.393972297E+02  4.237046044E+01  6.227574020E+01  2.018170245E+02  1.250000000E+02  0.00000E+00  9.000E+00
      21     1     1     2   512   501  1.097800939E+01  2.478318773E+00 -2.599133785E+01  2.832328366E+01  3.371747881E-07  0.00000E+00  9.000E+00
#rwgt            1           1   3.2371716326634492E-002           5      176498           0
</event>
<event>
      5   9999  3.79277E-02  3.62377E+01 -1.00000E+00  1.47552E-01
      21    -1     0     0   511   501  0.000000000E+00  0.000000000E+00  2.557458927E+02  2.557458927E+02  0.000000000E+00  0.00000E+00  9.000E+00
      21    -1     0     0   501   502  0.000000000E+00  0.000000000E+00 -2.987565920E+02  2.987565920E+02  0.000000000E+00  0.00000E+00  9.000E+00
      25     1     1     2     0     0 -5.206129458E+01  1.958807946E+02 -4.027403167E+01  2.415091338E+02  1.250000000E+02  0.00000E+00  9.000E+00
      25     1     1     2     0     0  4.201397908E+01 -2.306978048E+02 -3.031903310E+01  2.674526039E+02  1.250000000E+02  0.00000E+00  9.000E+00
      21     1     1     2   511   502  1.004731550E+01  3.481701014E+01  2.758236550E+01  4.554074692E+01  5.840038640E-07  0.00000E+00  9.000E+00
#rwgt            1           1   3.2783874461335509E-002           5      176897           0
</event>
<event>
      5   9999  3.79277E-02  1.50161E+02 -1.00000E+00  1.16375E-01
      21    -1     0     0   502   512  0.000000000E+00  0.000000000E+00  1.393496045E+03  1.393496045E+03  0.000000000E+00  0.00000E+00  9.000E+00
      21    -1     0     0   501   502  0.000000000E+00  0.000000000E+00 -2.518037967E+02  2.518037967E+02  0.000000000E+00  0.00000E+00  9.000E+00
      25     1     1     2     0     0 -1.654366552E+02  1.379569075E+02 -1.336440026E+02  2.826430871E+02  1.250000000E+02  0.00000E+00  9.000E+00
      25     1     1     2     0     0  2.710323831E+01 -7.954200139E+01  1.071158035E+02  1.848250818E+02  1.250000000E+02  0.00000E+00  9.000E+00
      21     1     1     2   501   512  1.383334169E+02 -5.841490610E+01  1.168220448E+03  1.177831673E+03  1.525878906E-05  0.00000E+00  9.000E+00
#rwgt            1           1   3.0046350799329487E-002           5      177027           0
</event>
<event>
      5   9999  3.79277E-02  1.86469E+01 -1.00000E+00  1.68919E-01
      21    -1     0     0   502   511  0.000000000E+00  0.000000000E+00  1.728950621E+02  1.728950621E+02  0.000000000E+00  0.00000E+00  9.000E+00
      21    -1     0     0   501   502  0.000000000E+00  0.000000000E+00 -3.519544707E+02  3.519544707E+02  0.000000000E+00  0.00000E+00  9.000E+00
      25     1     1     2     0     0 -5.746365894E+01 -1.634940237E+02 -1.821979277E+02  2.808085696E+02  1.250000000E+02  0.00000E+00  9.000E+00
      25     1     1     2     0     0  7.561861773E+01  1.677491257E+02 -7.497496899E+00  2.225739360E+02  1.250000000E+02  0.00000E+00  9.000E+00
      21     1     1     2   501   511 -1.815495879E+01 -4.255101967E+00  1.063601594E+01  2.146702719E+01  4.298152060E-07  0.00000E+00  9.000E+00
#rwgt            1           1   4.1079851339601091E-002           5      177200           0
</event>
<event>
      5   9999  3.79277E-02  1.27754E+02 -1.00000E+00  1.19225E-01
      21    -1     0     0   502   501  0.000000000E+00  0.000000000E+00  1.105049049E+02  1.105049049E+02  0.000000000E+00  0.00000E+00  9.000E+00
       1    -1     0     0   501     0  0.000000000E+00  0.000000000E+00 -1.808839563E+03  1.808839563E+03  0.000000000E+00  0.00000E+00  9.000E+00
      25     1     1     2     0     0  2.084972021E+02  9.160073991E+01 -2.663618644E+02  3.720691087E+02  1.250000000E+02  0.00000E+00  9.000E+00
      25     1     1     2     0     0 -9.199576714E+01 -1.440267225E+02 -1.512790368E+02  2.602254118E+02  1.250000000E+02  0.00000E+00  9.000E+00
       1     1     1     2   502     0 -1.165014350E+02  5.242598257E+01 -1.280693757E+03  1.287049947E+03  2.157918644E-05  0.00000E+00  9.000E+00
#rwgt            1           1   8.3649243553537894E-002           5      177410           0
</event>
<event>
      5   9999  3.79277E-02  6.02837E+01 -1.00000E+00  1.34594E-01
       2    -1     0     0   502     0  0.000000000E+00  0.000000000E+00  3.250735866E+02  3.250735866E+02  0.000000000E+00  0.00000E+00  9.000E+00
      21    -1     0     0   501   502  0.000000000E+00  0.000000000E+00 -2.350114040E+02  2.350114040E+02  0.000000000E+00  0.00000E+00  9.000E+00
      25     1     1     2     0     0 -4.080227549E+01 -9.320322606E+01 -3.314581025E+01  1.645457741E+02  1.250000000E+02  0.00000E+00  9.000E+00
      25     1     1     2     0     0  7.960769489E+01  4.707011385E+01 -8.608876527E+01  1.777336665E+02  1.250000000E+02  0.00000E+00  9.000E+00
       2     1     1     2   501     0 -3.880541940E+01  4.613311221E+01  2.092967582E+02  2.178055500E+02  2.697398305E-06  0.00000E+00  9.000E+00
#rwgt            1           1   4.2827860484981210E-002           5      177517           0
</event>
<event>
      5   9999  3.79277E-02  7.43305E+01 -1.00000E+00  1.29914E-01
      21    -1     0     0   502   501  0.000000000E+00  0.000000000E+00  1.205281873E+02  1.205281873E+02  0.000000000E+00  0.00000E+00  9.000E+00
      21    -1     0     0   511   502  0.000000000E+00  0.000000000E+00 -1.276169362E+03  1.276169362E+03  0.000000000E+00  0.00000E+00  9.000E+00
      25     1     1     2     0     0 -1.412484026E+02  9.147936049E+00 -2.538324525E+02  3.163711585E+02  1.250000000E+02  0.00000E+00  9.000E+00
      25     1     1     2     0     0  1.611703054E+02 -8.075893806E+01 -4.963158594E+01  2.249136896E+02  1.250000000E+02  0.00000E+00  9.000E+00
      21     1     1     2   511   501 -1.992190278E+01  7.161100201E+01 -8.521771360E+02  8.554127010E+02  1.078959322E-05  0.00000E+00  9.000E+00
#rwgt            2          11   9.9608902571636602E-004           5      177836           0
</event>
<event>
      5   9999  3.79277E-02  1.17493E+01 -1.00000E+00  1.87997E-01
      21    -1     0     0   502   501  0.000000000E+00  0.000000000E+00  2.172647857E+02  2.172647857E+02  0.000000000E+00  0.00000E+00  9.000E+00
      21    -1     0     0   512   502  0.000000000E+00  0.000000000E+00 -2.258841883E+02  2.258841883E+02  0.000000000E+00  0.00000E+00  9.000E+00
      25     1     1     2     0     0 -1.501417273E+02 -3.454912002E+00 -6.774318971E+01  2.068057409E+02  1.250000000E+02  0.00000E+00  9.000E+00
      25     1     1     2     0     0  1.605591976E+02  8.888333723E+00  7.460515906E+01  2.169082483E+02  1.250000000E+02  0.00000E+00  9.000E+00
      21     1     1     2   512   501 -1.041747029E+01 -5.433421720E+00 -1.548137201E+01  1.943498490E+01  2.384185791E-07  0.00000E+00  9.000E+00
#rwgt            1           1   3.9750006168746362E-002           5      177871           0
</event>
<event>
      5   9999  3.79277E-02  1.91651E+01 -1.00000E+00  1.67912E-01
      21    -1     0     0   511   501  0.000000000E+00  0.000000000E+00  7.276626175E+02  7.276626175E+02  0.000000000E+00  0.00000E+00  9.000E+00
      21    -1     0     0   501   502  0.000000000E+00  0.000000000E+00 -3.879631988E+02  3.879631988E+02  0.000000000E+00  0.00000E+00  9.000E+00
      25     1     1     2     0     0 -2.893405642E+01  2.253395193E+02  5.995012160E+02  6.531782196E+02  1.250000000E+02  0.00000E+00  9.000E+00
      25     1     1     2     0     0  4.809820978E+01 -2.251531638E+02 -3.116715327E+02  4.071504995E+02  1.250000000E+02  0.00000E+00  9.000E+00
      21     1     1     2   511   502 -1.916415336E+01 -1.863554594E-01  5.186973541E+01  5.529709715E+01  6.743495762E-07  0.00000E+00  9.000E+00
#rwgt            1           1  0.12776338114439217                5      178005           0
</event>
<event>
      5   9999  3.79277E-02  1.41808E+01 -1.00000E+00  1.79713E-01
      21    -1     0     0   512   501  0.000000000E+00  0.000000000E+00  4.119223179E+01  4.119223179E+01  0.000000000E+00  0.00000E+00  9.000E+00
      21    -1     0     0   501   502  0.000000000E+00  0.000000000E+00 -1.457150745E+03  1.457150745E+03  0.000000000E+00  0.00000E+00  9.000E+00
      25     1     1     2     0     0  7.797296231E+01 -1.734319712E+02 -5.224891690E+02  5.698932911E+02  1.250000000E+02  0.00000E+00  9.000E+00
      25     1     1     2     0     0 -8.806292880E+01  1.634676469E+02 -8.827148138E+02  9.106520706E+02  1.250000000E+02  0.00000E+00  9.000E+00
      21     1     1     2   512   502  1.008996649E+01  9.964324259E+00 -1.075453027E+01  1.779761509E+01  5.331201500E-07  0.00000E+00  9.000E+00
#rwgt            1           1   2.9501851948355189E-002           5      178210           0
</event>
<event>
      5   9999  3.79277E-02  9.87315E+01 -1.00000E+00  1.24078E-01
      21    -1     0     0   502   511  0.000000000E+00  0.000000000E+00  2.302422693E+02  2.302422693E+02  0.000000000E+00  0.00000E+00  9.000E+00
      21    -1     0     0   501   502  0.000000000E+00  0.000000000E+00 -9.537444274E+02  9.537444274E+02  0.000000000E+00  0.00000E+00  9.000E+00
      25     1     1     2     0     0 -1.887231090E+01 -1.535524855E+02 -6.896162575E+02  7.177256527E+02  1.250000000E+02  0.00000E+00  9.000E+00
      25     1     1     2     0     0  5.748345054E+01  6.268393032E+01 -2.133154291E+02  2.614614589E+02  1.250000000E+02  0.00000E+00  9.000E+00
      21     1     1     2   501   511 -3.861113965E+01  9.086855515E+01  1.794295285E+02  2.047995852E+02  3.303624740E-06  0.00000E+00  9.000E+00
#rwgt            1           1   4.1036609017600346E-002           5      178472           0
</event>
<event>
      5   9999  3.79277E-02  5.41854E+01 -1.00000E+00  1.37112E-01
      21    -1     0     0   502   501  0.000000000E+00  0.000000000E+00  3.766017070E+02  3.766017070E+02  0.000000000E+00  0.00000E+00  9.000E+00
      21    -1     0     0   501   512  0.000000000E+00  0.000000000E+00 -1.374587709E+02  1.374587709E+02  0.000000000E+00  0.00000E+00  9.000E+00
      25     1     1     2     0     0  1.256801563E+02 -8.825481460E+01  1.254483206E+02  2.344071141E+02  1.250000000E+02  0.00000E+00  9.000E+00
      25     1     1     2     0     0 -1.418943819E+02  3.655223312E+01  1.170241236E+02  2.253657624E+02  1.250000000E+02  0.00000E+00  9.000E+00
      21     1     1     2   502   512  1.621422551E+01  5.170258149E+01 -3.329508162E+00  5.428760140E+01  7.748603821E-07  0.00000E+00  9.000E+00
#rwgt            1           1   4.1047881261091948E-002           5      178530           0
</event>
<event>
      5   9999  3.79277E-02  8.71632E+01 -1.00000E+00  1.26572E-01
      21    -1     0     0   502   511  0.000000000E+00  0.000000000E+00  1.658400525E+02  1.658400525E+02  0.000000000E+00  0.00000E+00  9.000E+00
      21    -1     0     0   501   502  0.000000000E+00  0.000000000E+00 -3.966538411E+02  3.966538411E+02  0.000000000E+00  0.00000E+00  9.000E+00
      25     1     1     2     0     0  7.574938891E+01  3.239352193E+01 -2.773119787E+02  3.151416249E+02  1.250000000E+02  0.00000E+00  9.000E+00
      25     1     1     2     0     0 -1.151396836E+01 -9.131075820E+01  3.775304181E+01  1.597514263E+02  1.250000000E+02  0.00000E+00  9.000E+00
      21     1     1     2   501   511 -6.423542056E+01  5.891723627E+01  8.745148326E+00  8.760084248E+01  1.474537477E-06  0.00000E+00  9.000E+00
#rwgt            2          11   2.2986975704250147E-003           5      178622           0
</event>
<event>
      5   9999  3.79277E-02  2.37330E+01 -1.00000E+00  1.60462E-01
      21    -1     0     0   502   512  0.000000000E+00  0.000000000E+00  3.398622086E+02  3.398622086E+02  0.000000000E+00  0.00000E+00  9.000E+00
      21    -1     0     0   501   502  0.000000000E+00  0.000000000E+00 -1.440965462E+02  1.440965462E+02  0.000000000E+00  0.00000E+00  9.000E+00
      25     1     1     2     0     0  4.099486417E+01 -1.495336049E+02  8.491583179E+01  2.165099914E+02  1.250000000E+02  0.00000E+00  9.000E+00
      25     1     1     2     0     0 -5.892464296E+01  1.650828135E+02  8.269376864E+01  2.306246046E+02  1.250000000E+02  0.00000E+00  9.000E+00
      21     1     1     2   501   512  1.792977879E+01 -1.554920861E+01  2.815606190E+01  3.682415888E+01  4.768371582E-07  0.00000E+00  9.000E+00
#rwgt            1           1   4.9913804734565498E-002           5      178642           0
</event>
<event>
      5   9999  3.79277E-02  1.81810E+01 -1.00000E+00  1.69860E-01
      21    -1     0     0   502   501  0.000000000E+00  0.000000000E+00  2.904275178E+02  2.904275178E+02  0.000000000E+00  0.00000E+00  9.000E+00
      21    -1     0     0   501   511  0.000000000E+00  0.000000000E+00 -2.273219333E+02  2.273219333E+02  0.000000000E+00  0.00000E+00  9.000E+00
      25     1     1     2     0     0  5.812295884E+01  2.468293028E+01 -8.787261040E+01  1.653303392E+02  1.250000000E+02  0.00000E+00  9.000E+00
      25     1     1     2     0     0 -4.807044111E+01 -9.533868132E+00  2.327236188E+02  2.686762823E+02  1.250000000E+02  0.00000E+00  9.000E+00
      21     1     1     2   502   511 -1.005251773E+01 -1.514906214E+01 -8.174542383E+01  8.374282963E+01  0.000000000E+00  0.00000E+00  9.000E+00
#rwgt            1           1   4.8090438833853180E-002           5      178820           0
</event>
<event>
      5   9999  3.79277E-02  2.85223E+01 -1.00000E+00  1.54579E-01
      21    -1     0     0   502   501  0.000000000E+00  0.000000000E+00  1.956850196E+02  1.956850196E+02  0.000000000E+00  0.00000E+00  9.000E+00
      21    -1     0     0   501   512  0.000000000E+00  0.000000000E+00 -2.506006305E+02  2.506006305E+02  0.000000000E+00  0.00000E+00  9.000E+00
      25     1     1     2     0     0 -3.870147167E+01 -3.231281883E+01 -1.008100929E+02  1.683139834E+02  1.250000000E+02  0.00000E+00  9.000E+00
      25     1     1     2     0     0  6.249864473E+01  1.658972042E+01  1.285039334E+02  1.905769145E+02  1.250000000E+02  0.00000E+00  9.000E+00
      21     1     1     2   502   512 -2.379717306E+01  1.572309841E+01 -8.260945140E+01  8.739475230E+01  0.000000000E+00  0.00000E+00  9.000E+00
#rwgt            1           1   3.8895245045666250E-002           5      179034           0
</event>
<event>
      5   9999  3.79277E-02  5.03751E+01 -1.00000E+00  1.38891E-01
      21    -1     0     0   502   501  0.000000000E+00  0.000000000E+00  1.512759487E+02  1.512759487E+02  0.000000000E+00  0.00000E+00  9.000E+00
      21    -1     0     0   501   511  0.000000000E+00  0.000000000E+00 -4.098164288E+02  4.098164288E+02  0.000000000E+00  0.00000E+00  9.000E+00
      25     1     1     2     0     0  1.618124143E+02  2.689995106E+00 -1.118391647E+01  2.047939781E+02  1.250000000E+02  0.00000E+00  9.000E+00
      25     1     1     2     0     0 -1.475577420E+02  4.562620868E+01 -1.585574617E+02  2.542056388E+02  1.250000000E+02  0.00000E+00  9.000E+00
      21     1     1     2   502   511 -1.425467225E+01 -4.831620379E+01 -8.879910205E+01  1.020927605E+02  1.348699152E-06  0.00000E+00  9.000E+00
#rwgt            1           1   4.1078691772774990E-002           5      179161           0
</event>
<event>
      5   9999  3.79277E-02  1.12553E+02 -1.00000E+00  1.21561E-01
      21    -1     0     0   502   501  0.000000000E+00  0.000000000E+00  1.061024254E+03  1.061024254E+03  0.000000000E+00  0.00000E+00  9.000E+00
      21    -1     0     0   512   502  0.000000000E+00  0.000000000E+00 -3.063457330E+02  3.063457330E+02  0.000000000E+00  0.00000E+00  9.000E+00
      25     1     1     2     0     0 -1.405812127E+02 -3.670808373E+01  8.224276668E+02  8.444660016E+02  1.250000000E+02  0.00000E+00  9.000E+00
      25     1     1     2     0     0  4.507297074E+01  9.625974580E+01  1.843656497E+02  2.468060050E+02  1.250000000E+02  0.00000E+00  9.000E+00
      21     1     1     2   512   501  9.550824194E+01 -5.955166207E+01 -2.521147953E+02  2.760979804E+02  2.697398305E-06  0.00000E+00  9.000E+00
#rwgt            1           1   3.6748154982059036E-002           5      179239           0
</event>
<event>
      5   9999  3.79277E-02  4.28181E+01 -1.00000E+00  1.43030E-01
      21    -1     0     0   502   511  0.000000000E+00  0.000000000E+00  2.890524541E+01  2.890524541E+01  0.000000000E+00  0.00000E+00  9.000E+00
      21    -1     0     0   501   502  0.000000000E+00  0.000000000E+00 -1.878330744E+03  1.878330744E+03  0.000000000E+00  0.00000E+00  9.000E+00
      25     1     1     2     0     0  9.133992947E+01  1.454204028E+02 -7.879127360E+02  8.160401680E+02  1.250000000E+02  0.00000E+00  9.000E+00
      25     1     1     2     0     0 -9.868868984E+01 -1.032376637E+02 -9.884836700E+02  1.006539835E+03  1.250000000E+02  0.00000E+00  9.000E+00
      21     1     1     2   501   511  7.348760372E+00 -4.218273903E+01 -7.302909297E+01  8.465598722E+01  0.000000000E+00  0.00000E+00  9.000E+00
#rwgt            1           1   2.5601118991970602E-002           5      179334           0
</event>
<event>
      5   9999  3.79277E-02  6.16855E+01 -1.00000E+00  1.34064E-01
      21    -1     0     0   502   512  0.000000000E+00  0.000000000E+00  3.062075348E+02  3.062075348E+02  0.000000000E+00  0.00000E+00  9.000E+00
      21    -1     0     0   501   502  0.000000000E+00  0.000000000E+00 -4.918822669E+02  4.918822669E+02  0.000000000E+00  0.00000E+00  9.000E+00
      25     1     1     2     0     0  3.604012617E+01  2.263858781E+02 -3.381945856E+02  4.272587439E+02  1.250000000E+02  0.00000E+00  9.000E+00
      25     1     1     2     0     0  2.553816042E+01 -2.227503119E+02  6.684625800E+01  2.652608552E+02  1.250000000E+02  0.00000E+00  9.000E+00
      21     1     1     2   501   512 -6.157828659E+01 -3.635566204E+00  8.567359549E+01  1.055702026E+02  2.336015456E-06  0.00000E+00  9.000E+00
#rwgt            2          11   1.7608723178480425E-003           5      179550           0
</event>
<event>
      5   9999  3.79277E-02  1.54281E+01 -1.00000E+00  1.76240E-01
      21    -1     0     0   502   501  0.000000000E+00  0.000000000E+00  8.499945671E+02  8.499945671E+02  0.000000000E+00  0.00000E+00  9.000E+00
      21    -1     0     0   511   502  0.000000000E+00  0.000000000E+00 -2.310754143E+02  2.310754143E+02  0.000000000E+00  0.00000E+00  9.000E+00
      25     1     1     2     0     0 -1.389048332E+02  1.836860973E+01  7.243687594E+02  7.483094668E+02  1.250000000E+02  0.00000E+00  9.000E+00
      25     1     1     2     0     0  1.526670698E+02 -2.534200022E+01  2.580705604E+01  2.006002376E+02  1.250000000E+02  0.00000E+00  9.000E+00
      21     1     1     2   511   501 -1.376223659E+01  6.973390486E+00 -1.312566627E+02  1.321602770E+02  2.697398305E-06  0.00000E+00  9.000E+00
#rwgt            1           1   4.6280441294252114E-002           5      179570           0
</event>
<event>
      5   9999  3.79277E-02  9.60033E+01 -1.00000E+00  1.24630E-01
      21    -1     0     0   502   501  0.000000000E+00  0.000000000E+00  3.016360149E+02  3.016360149E+02  0.000000000E+00  0.00000E+00  9.000E+00
      21    -1     0     0   501   512  0.000000000E+00  0.000000000E+00 -7.420407795E+02  7.420407795E+02  0.000000000E+00  0.00000E+00  9.000E+00
      25     1     1     2     0     0 -2.170375295E+02 -2.290928816E+02 -1.702365490E+02  3.797292722E+02  1.250000000E+02  0.00000E+00  9.000E+00
      25     1     1     2     0     0  3.077914578E+02  2.604035776E+02 -5.162564669E+01  4.252479419E+02  1.250000000E+02  0.00000E+00  9.000E+00
      21     1     1     2   502   512 -9.075392835E+01 -3.131069598E+01 -2.185425689E+02  2.386995802E+02  0.000000000E+00  0.00000E+00  9.000E+00
#rwgt            1           1   2.6728112921549550E-002           5      179811           0
</event>
<event>
      5   9999  3.79277E-02  3.19874E+01 -1.00000E+00  1.51130E-01
       2    -1     0     0   502     0  0.000000000E+00  0.000000000E+00  4.303045422E+02  4.303045422E+02  0.000000000E+00  0.00000E+00  9.000E+00
      21    -1     0     0   501   502  0.000000000E+00  0.000000000E+00 -2.550170715E+02  2.550170715E+02  0.000000000E+00  0.00000E+00  9.000E+00
      25     1     1     2     0     0 -9.734036103E+01  5.497580503E+01  2.166631916E+01  1.690914380E+02  1.250000000E+02  0.00000E+00  9.000E+00
      25     1     1     2     0     0  1.259697927E+02 -6.924276842E+01 -1.301192874E+02  2.306923896E+02  1.250000000E+02  0.00000E+00  9.000E+00
       2     1     1     2   501     0 -2.862943167E+01  1.426696338E+01  2.837404390E+02  2.855377862E+02  3.814697266E-06  0.00000E+00  9.000E+00
#rwgt            1           1   4.4139889164059268E-002           5      179893           0
</event>
<event>
      5   9999  3.79277E-02  2.29001E+01 -1.00000E+00  1.61659E-01
      21    -1     0     0   511   501  0.000000000E+00  0.000000000E+00  6.776243199E+02  6.776243199E+02  0.000000000E+00  0.00000E+00  9.000E+00
      21    -1     0     0   501   502  0.000000000E+00  0.000000000E+00 -9.116813698E+01  9.116813698E+01  0.000000000E+00  0.00000E+00  9.000E+00
      25     1     1     2     0     0  9.711792828E+01 -1.011550674E+02  4.882153697E+01  1.940947761E+02  1.250000000E+02  0.00000E+00  9.000E+00
      25     1     1     2     0     0 -8.856446837E+01  7.991230548E+01  4.083555835E+02  4.434060489E+02  1.250000000E+02  0.00000E+00  9.000E+00
      21     1     1     2   511   502 -8.553459911E+00  2.124276188E+01  1.292790625E+02  1.312916319E+02  1.907348633E-06  0.00000E+00  9.000E+00
#rwgt            1           1   4.7999505792577148E-002           5      180108           0
</event>
<event>
      5   9999  3.79277E-02  3.51181E+01 -1.00000E+00  1.48435E-01
      21    -1     0     0   502   501  0.000000000E+00  0.000000000E+00  6.679380328E+02  6.679380328E+02  0.000000000E+00  0.00000E+00  9.000E+00
      21    -1     0     0   501   512  0.000000000E+00  0.000000000E+00 -9.181109535E+01  9.181109535E+01  0.000000000E+00  0.00000E+00  9.000E+00
      25     1     1     2     0     0  1.612168910E+02  3.939273169E+01  4.737516829E+02  5.173087379E+02  1.250000000E+02  0.00000E+00  9.000E+00
      25     1     1     2     0     0 -1.347792226E+02 -1.627717829E+01  8.873361894E+01  2.047658187E+02  1.250000000E+02  0.00000E+00  9.000E+00
      21     1     1     2   502   512 -2.643766841E+01 -2.311555340E+01  1.364163559E+01  3.767457155E+01  8.760057960E-07  0.00000E+00  9.000E+00
#rwgt            1           1   3.8297883271225831E-002           5      180436           0
</event>
<event>
      5   9999  3.79277E-02  2.52785E+01 -1.00000E+00  1.58391E-01
      21    -1     0     0   502   511  0.000000000E+00  0.000000000E+00  6.891069995E+02  6.891069995E+02  0.000000000E+00  0.00000E+00  9.000E+00
      21    -1     0     0   501   502  0.000000000E+00  0.000000000E+00 -1.059286302E+02  1.059286302E+02  0.000000000E+00  0.00000E+00  9.000E+00
      25     1     1     2     0     0 -1.574211408E+02 -2.112457127E+01  5.096658866E+02  5.482809307E+02  1.250000000E+02  0.00000E+00  9.000E+00
      25     1     1     2     0     0  1.498381243E+02  4.523892693E+01  3.915265280E+01  2.040979035E+02  1.250000000E+02  0.00000E+00  9.000E+00
      21     1     1     2   501   511  7.583016559E+00 -2.411435565E+01  3.435982993E+01  4.265679549E+01  6.743495762E-07  0.00000E+00  9.000E+00
#rwgt            1           1   4.0173098110381431E-002           5      180598           0
</event>
<event>
      5   9999  3.79277E-02  8.36091E+01 -1.00000E+00  1.27429E-01
      21    -1     0     0   512   501  0.000000000E+00  0.000000000E+00  5.368992470E+02  5.368992470E+02  0.000000000E+00  0.00000E+00  9.000E+00
      21    -1     0     0   501   502  0.000000000E+00  0.000000000E+00 -1.177618778E+02  1.177618778E+02  0.000000000E+00  0.00000E+00  9.000E+00
      25     1     1     2     0     0  1.516802570E+02  4.484695921E-01  2.385934333E+02  3.091260712E+02  1.250000000E+02  0.00000E+00  9.000E+00
      25     1     1     2     0     0 -1.260418638E+02  7.913264629E+01  6.922495132E+01  2.063143743E+02  1.250000000E+02  0.00000E+00  9.000E+00
      21     1     1     2   512   502 -2.563839317E+01 -7.958111589E+01  1.113189847E+02  1.392206794E+02  1.348699152E-06  0.00000E+00  9.000E+00
#rwgt            1           1   3.6856086625625450E-002           5      180780           0
</event>
<event>
      5   9999  3.79277E-02  2.45931E+01 -1.00000E+00  1.59287E-01
      21    -1     0     0   502   501  0.000000000E+00  0.000000000E+00  8.897137121E+01  8.897137121E+01  0.000000000E+00  0.00000E+00  9.000E+00
      21    -1     0     0   501   511  0.000000000E+00  0.000000000E+00 -6.056436649E+02  6.056436649E+02  0.000000000E+00  0.00000E+00  9.000E+00
      25     1     1     2     0     0  7.122175420E+00 -1.426492897E+02 -7.176860329E+01  2.029169230E+02  1.250000000E+02  0.00000E+00  9.000E+00
      25     1     1     2     0     0  1.422865991E+01  1.304443660E+02 -3.562491446E+02  3.996956848E+02  1.250000000E+02  0.00000E+00  9.000E+00
      21     1     1     2   502   511 -2.135083533E+01  1.220492368E+01 -8.865454584E+01  9.200242839E+01  1.348699152E-06  0.00000E+00  9.000E+00
#rwgt            1           1   4.1700479527320485E-002           5      181027           0
</event>
<event>
      5   9999  3.79277E-02  2.28616E+01 -1.00000E+00  1.61716E-01
      21    -1     0     0   502   512  0.000000000E+00  0.000000000E+00  6.791084069E+02  6.791084069E+02  0.000000000E+00  0.00000E+00  9.000E+00
      21    -1     0     0   501   502  0.000000000E+00  0.000000000E+00 -5.847897141E+01  5.847897141E+01  0.000000000E+00  0.00000E+00  9.000E+00
      25     1     1     2     0     0 -4.264612733E+01  1.335238731E+02  2.600412277E+02  3.207705675E+02  1.250000000E+02  0.00000E+00  9.000E+00
      25     1     1     2     0     0  6.264176274E+01 -1.224411592E+02  3.129273160E+02  3.639564988E+02  1.250000000E+02  0.00000E+00  9.000E+00
      21     1     1     2   501   512 -1.999563542E+01 -1.108271387E+01  4.766089171E+01  5.286031196E+01  6.743495762E-07  0.00000E+00  9.000E+00
#rwgt            1           1   3.6913720790474322E-002           5      181238           0
</event>
<event>
      5   9999  3.79277E-02  2.66240E+01 -1.00000E+00  1.56730E-01
      21    -1     0     0   502   501  0.000000000E+00  0.000000000E+00  2.730538027E+02  2.730538027E+02  0.000000000E+00  0.00000E+00  9.000E+00
      21    -1     0     0   501   511  0.000000000E+00  0.000000000E+00 -9.132148048E+01  9.132148048E+01  0.000000000E+00  0.00000E+00  9.000E+00
      25     1     1     2     0     0  5.244041078E+01 -6.150149352E+00  1.146994726E+02  1.776760818E+02  1.250000000E+02  0.00000E+00  9.000E+00
      25     1     1     2     0     0 -2.761577227E+01 -3.471520573E+00  8.578095680E+01  1.541364813E+02  1.250000000E+02  0.00000E+00  9.000E+00
      21     1     1     2   502   511 -2.482463851E+01  9.621669925E+00 -1.874810724E+01  3.256272001E+01  5.331201500E-07  0.00000E+00  9.000E+00
#rwgt            1           1   1.0480534536718940E-002           5      181496           0
</event>
<event>
      5   9999  3.79277E-02  4.11873E+01 -1.00000E+00  1.44057E-01
      21    -1     0     0   502   501  0.000000000E+00  0.000000000E+00  4.091916615E+02  4.091916615E+02  0.000000000E+00  0.00000E+00  9.000E+00
      21    -1     0     0   512   502  0.000000000E+00  0.000000000E+00 -2.163169305E+02  2.163169305E+02  0.000000000E+00  0.00000E+00  9.000E+00
      25     1     1     2     0     0  1.109286607E+02  1.451908205E+02  2.379412291E+02  3.250024164E+02  1.250000000E+02  0.00000E+00  9.000E+00
      25     1     1     2     0     0 -1.437332884E+02 -1.700956302E+02 -3.244595579E+01  2.574286730E+02  1.250000000E+02  0.00000E+00  9.000E+00
      21     1     1     2   512   501  3.280462768E+01  2.490480970E+01 -1.262054227E+01  4.307750260E+01  8.259061849E-07  0.00000E+00  9.000E+00
#rwgt            1           1   3.9588092281646829E-002           5      181634           0
</event>
<event>
      5   9999  3.79277E-02  1.53874E+01 -1.00000E+00  1.76347E-01
      21    -1     0     0   502   511  0.000000000E+00  0.000000000E+00  5.952936151E+02  5.952936151E+02  0.000000000E+00  0.00000E+00  9.000E+00
      21    -1     0     0   501   502  0.000000000E+00  0.000000000E+00 -7.225321827E+01  7.225321827E+01  0.000000000E+00  0.00000E+00  9.000E+00
      25     1     1     2     0     0  4.283415658E+01 -5.990130899E+01  3.543035141E+02  3.828562549E+02  1.250000000E+02  0.00000E+00  9.000E+00
      25     1     1     2     0     0 -5.629073567E+01  5.243850406E+01  3.608274130E+01  1.511469743E+02  1.250000000E+02  0.00000E+00  9.000E+00
      21     1     1     2   501   511  1.345657909E+01  7.462804928E+00  1.326541413E+02  1.335436041E+02  2.697398305E-06  0.00000E+00  9.000E+00
#rwgt            1           1   4.7565404712563021E-002           5      181811           0
</event>
<event>
      5   9999  3.79277E-02  1.27616E+02 -1.00000E+00  1.19245E-01
      21    -1     0     0   512   501  0.000000000E+00  0.000000000E+00  5.929054516E+02  5.929054516E+02  0.000000000E+00  0.00000E+00  9.000E+00
      21    -1     0     0   501   502  0.000000000E+00  0.000000000E+00 -1.535551963E+02  1.535551963E+02  0.000000000E+00  0.00000E+00  9.000E+00
      25     1     1     2     0     0  1.372401653E+02 -1.837183989E+02  7.334999046E+01  2.712794392E+02  1.250000000E+02  0.00000E+00  9.000E+00
      25     1     1     2     0     0 -6.980150505E+01  7.537653022E+01  1.326910469E+02  2.092505325E+02  1.250000000E+02  0.00000E+00  9.000E+00
      21     1     1     2   512   502 -6.743866024E+01  1.083418686E+02  2.333092179E+02  2.659306763E+02  3.814697266E-06  0.00000E+00  9.000E+00
#rwgt            1           1   3.6760110551545620E-002           5      182074           0
</event>
<event>
      5   9999  3.79277E-02  1.99619E+02 -1.00000E+00  1.11678E-01
      21    -1     0     0   502   501  0.000000000E+00  0.000000000E+00  7.150760362E+02  7.150760362E+02  0.000000000E+00  0.00000E+00  9.000E+00
      21    -1     0     0   511   502  0.000000000E+00  0.000000000E+00 -1.192039785E+03  1.192039785E+03  0.000000000E+00  0.00000E+00  9.000E+00
      25     1     1     2     0     0 -2.003067419E+02  4.139366767E+02 -7.811998034E+02  9.150762241E+02  1.250000000E+02  0.00000E+00  9.000E+00
      25     1     1     2     0     0  3.845838976E+02 -3.371917866E+02  4.900742988E+02  7.193058415E+02  1.250000000E+02  0.00000E+00  9.000E+00
      21     1     1     2   511   501 -1.842771557E+02 -7.674489016E+01 -1.858382438E+02  2.727337551E+02  3.814697266E-06  0.00000E+00  9.000E+00
#rwgt            1           1   1.1909529169577984E-002           5      182222           0
</event>
<event>
      5   9999  3.79277E-02  1.13950E+01 -1.00000E+00  1.89421E-01
      21    -1     0     0   502   501  0.000000000E+00  0.000000000E+00  5.495514707E+02  5.495514707E+02  0.000000000E+00  0.00000E+00  9.000E+00
      21    -1     0     0   501   512  0.000000000E+00  0.000000000E+00 -2.532035968E+02  2.532035968E+02  0.000000000E+00  0.00000E+00  9.000E+00
      25     1     1     2     0     0 -2.852769242E+02  1.212259301E+02  3.059890038E+02  4.531367565E+02  1.250000000E+02  0.00000E+00  9.000E+00
      25     1     1     2     0     0  2.871044322E+02 -1.099783849E+02  3.913316838E+00  3.319104008E+02  1.250000000E+02  0.00000E+00  9.000E+00
      21     1     1     2   502   512 -1.827507977E+00 -1.124754523E+01 -1.355444671E+01  1.770791023E+01  4.460403188E-07  0.00000E+00  9.000E+00
#rwgt            1           1  0.13143583499437397                5      182284           0
</event>
<event>
      5   9999  3.79277E-02  3.75915E+01 -1.00000E+00  1.46533E-01
      21    -1     0     0   511   501  0.000000000E+00  0.000000000E+00  8.826119461E+01  8.826119461E+01  0.000000000E+00  0.00000E+00  9.000E+00
      21    -1     0     0   501   502  0.000000000E+00  0.000000000E+00 -7.482906858E+02  7.482906858E+02  0.000000000E+00  0.00000E+00  9.000E+00
      25     1     1     2     0     0 -1.793117063E+02  6.471146055E+01 -4.085550627E+02  4.678488008E+02  1.250000000E+02  0.00000E+00  9.000E+00
      25     1     1     2     0     0  1.702475970E+02 -2.822911176E+01 -2.533714372E+02  3.310637585E+02  1.250000000E+02  0.00000E+00  9.000E+00
      21     1     1     2   511   502  9.064109347E+00 -3.648234879E+01  1.897008684E+00  3.763932111E+01  6.122183378E-07  0.00000E+00  9.000E+00
#rwgt            1           1   1.5755290086810182E-002           5      182648           0
</event>
<event>
      5   9999  3.79277E-02  9.20173E+00 -1.00000E+00  2.00029E-01
      21    -1     0     0   512   501  0.000000000E+00  0.000000000E+00  1.335015662E+02  1.335015662E+02  0.000000000E+00  0.00000E+00  9.000E+00
      21    -1     0     0   501   502  0.000000000E+00  0.000000000E+00 -3.879093681E+02  3.879093681E+02  0.000000000E+00  0.00000E+00  9.000E+00
      25     1     1     2     0     0  1.418427454E+01 -1.260627800E+02  1.679600425E+01  1.788857845E+02  1.250000000E+02  0.00000E+00  9.000E+00
      25     1     1     2     0     0 -2.125432195E+01  1.319522781E+02 -2.767500732E+02  3.317811823E+02  1.250000000E+02  0.00000E+00  9.000E+00
      21     1     1     2   512   502  7.070047416E+00 -5.889498082E+00  5.546267012E+00  1.074396742E+01  2.230201594E-07  0.00000E+00  9.000E+00
#rwgt            1           1   4.2752560472794417E-002           5      182724           0
</event>
<event>
      5   9999  3.79277E-02  2.02306E+02 -1.00000E+00  1.11467E-01
      21    -1     0     0   502   501  0.000000000E+00  0.000000000E+00  6.729316585E+02  6.729316585E+02  0.000000000E+00  0.00000E+00  9.000E+00
      21    -1     0     0   511   502  0.000000000E+00  0.000000000E+00 -6.956251331E+02  6.956251331E+02  0.000000000E+00  0.00000E+00  9.000E+00
      25     1     1     2     0     0  6.979790502E+01 -1.378201099E+02  5.941007940E+02  6.264558114E+02  1.250000000E+02  0.00000E+00  9.000E+00
      25     1     1     2     0     0 -5.250333056E+00 -5.391254946E+01 -5.846079404E+01  1.482457198E+02  1.250000000E+02  0.00000E+00  9.000E+00
      21     1     1     2   511   501 -6.454757196E+01  1.917326593E+02 -5.583334745E+02  5.938552605E+02  7.629394531E-06  0.00000E+00  9.000E+00
#rwgt            1           1   3.8751777284909049E-002           5      182945           0
</event>
<event>
      5   9999  3.79277E-02  2.36875E+01 -1.00000E+00  1.60525E-01
      21    -1     0     0   512   501  0.000000000E+00  0.000000000E+00  3.092616099E+02  3.092616099E+02  0.000000000E+00  0.00000E+00  9.000E+00
      21    -1     0     0   501   502  0.000000000E+00  0.000000000E+00 -2.248794770E+02  2.248794770E+02  0.000000000E+00  0.00000E+00  9.000E+00
      25     1     1     2     0     0  5.330292502E+01  8.704573646E+01 -1.274307303E+02  2.056252735E+02  1.250000000E+02  0.00000E+00  9.000E+00
      25     1     1     2     0     0 -7.695372800E+01 -8.836450177E+01  7.056570739E+01  1.852961966E+02  1.250000000E+02  0.00000E+00  9.000E+00
      21     1     1     2   512   502  2.365080298E+01  1.318765310E+00  1.412471558E+02  1.432196168E+02  2.697398305E-06  0.00000E+00  9.000E+00
#rwgt            1           1   4.4482800965664551E-002           5      183055           0
</event>
<event>
      5   9999  3.79277E-02  1.36492E+01 -1.00000E+00  1.81334E-01
      21    -1     0     0   511   501  0.000000000E+00  0.000000000E+00  5.016597139E+02  5.016597139E+02  0.000000000E+00  0.00000E+00  9.000E+00
      21    -1     0     0   501   502  0.000000000E+00  0.000000000E+00 -1.046963774E+02  1.046963774E+02  0.000000000E+00  0.00000E+00  9.000E+00
      25     1     1     2     0     0 -8.579373590E+01 -1.442892826E+02  2.612298825E+02  3.347327497E+02  1.250000000E+02  0.00000E+00  9.000E+00
      25     1     1     2     0     0  7.397950557E+01  1.374536550E+02  8.192240650E+01  2.161082025E+02  1.250000000E+02  0.00000E+00  9.000E+00
      21     1     1     2   511   502  1.181423033E+01  6.835627661E+00  5.381104748E+01  5.551513915E+01  6.743495762E-07  0.00000E+00  9.000E+00
#rwgt            1           1   3.5947409545511087E-002           5      183180           0
</event>
<event>
      5   9999  3.79277E-02  1.19428E+02 -1.00000E+00  1.20456E-01
      21    -1     0     0   502   501  0.000000000E+00  0.000000000E+00  7.367410525E+01  7.367410525E+01  0.000000000E+00  0.00000E+00  9.000E+00
      21    -1     0     0   512   502  0.000000000E+00  0.000000000E+00 -2.345154273E+03  2.345154273E+03  0.000000000E+00  0.00000E+00  9.000E+00
      25     1     1     2     0     0 -6.886712902E+01 -5.020685033E+00 -2.273153419E+02  2.684495360E+02  1.250000000E+02  0.00000E+00  9.000E+00
      25     1     1     2     0     0  8.089790240E+01 -1.138001650E+02 -1.200425480E+02  2.225537272E+02  1.250000000E+02  0.00000E+00  9.000E+00
      21     1     1     2   512   501 -1.203077339E+01  1.188208500E+02 -1.924122278E+03  1.927825115E+03  3.737624730E-05  0.00000E+00  9.000E+00
#rwgt            1           1   4.4168721912789276E-002           5      183398           0
</event>
<event>
      5   9999  3.79277E-02  5.62615E+01 -1.00000E+00  1.36214E-01
      -1    -1     0     0     0   501  0.000000000E+00  0.000000000E+00  4.175302289E+02  4.175302289E+02  0.000000000E+00  0.00000E+00  9.000E+00
      21    -1     0     0   501   502  0.000000000E+00  0.000000000E+00 -7.257311827E+02  7.257311827E+02  0.000000000E+00  0.00000E+00  9.000E+00
      25     1     1     2     0     0 -1.783012122E+02 -1.615778667E+02 -2.589250078E+02  3.749211770E+02  1.250000000E+02  0.00000E+00  9.000E+00
      25     1     1     2     0     0  1.454970634E+02  2.072861448E+02 -3.571758979E+02  4.553422485E+02  1.250000000E+02  0.00000E+00  9.000E+00
      -1     1     1     2     0   502  3.280414889E+01 -4.570827809E+01  3.078999520E+02  3.129979861E+02  5.394796609E-06  0.00000E+00  9.000E+00
#rwgt            1           1   2.7920708574970945E-002           5      183622           0
</event>
<event>
      5   9999 -3.79277E-02  5.20646E+01 -1.00000E+00  1.38080E-01
       2    -1     0     0   502     0  0.000000000E+00  0.000000000E+00  2.434556399E+03  2.434556399E+03  0.000000000E+00  0.00000E+00  9.000E+00
      21    -1     0     0   501   502  0.000000000E+00  0.000000000E+00 -1.052912558E+02  1.052912558E+02  0.000000000E+00  0.00000E+00  9.000E+00
      25     1     1     2     0     0 -8.510805690E+01 -1.214825397E+01  5.042723520E+00  1.517939079E+02  1.250000000E+02  0.00000E+00  9.000E+00
      25     1     1     2     0     0  9.299599548E+01  6.361185927E+01  1.924661404E+02  2.556617668E+02  1.250000000E+02  0.00000E+00  9.000E+00
       2     1     1     2   501     0 -7.887938583E+00 -5.146360531E+01  2.131756279E+03  2.132391980E+03  0.000000000E+00  0.00000E+00  9.000E+00
#rwgt            1           1  -1.9732963727822898E-002           5      183763           0
</event>
<event>
      5   9999  3.79277E-02  6.09483E+01 -1.00000E+00  1.34340E-01
      21    -1     0     0   502   511  0.000000000E+00  0.000000000E+00  2.335479686E+02  2.335479686E+02  0.000000000E+00  0.00000E+00  9.000E+00
      21    -1     0     0   501   502  0.000000000E+00  0.000000000E+00 -5.597897795E+02  5.597897795E+02  0.000000000E+00  0.00000E+00  9.000E+00
      25     1     1     2     0     0  3.167631759E+02 -5.552067695E+01 -1.056357650E+02  3.608398121E+02  1.250000000E+02  0.00000E+00  9.000E+00
      25     1     1     2     0     0 -2.630877644E+02  8.439354362E+01 -2.140733913E+02  3.712005642E+02  1.250000000E+02  0.00000E+00  9.000E+00
      21     1     1     2   501   511 -5.367541141E+01 -2.887286667E+01 -6.532654565E+00  6.129737185E+01  8.960542904E-07  0.00000E+00  9.000E+00
#rwgt            1           1   3.8094704931592969E-002           5      183867           0
</event>
<event>
      5   9999  3.79277E-02  2.82289E+00 -1.00000E+00  3.05125E-01
      21    -1     0     0   502   501  0.000000000E+00  0.000000000E+00  1.817121944E+03  1.817121944E+03  0.000000000E+00  0.00000E+00  9.000E+00
      -1    -1     0     0     0   502  0.000000000E+00  0.000000000E+00 -2.072613118E+02  2.072613118E+02  0.000000000E+00  0.00000E+00  9.000E+00
      25     1     1     2     0     0 -1.626797694E+02  8.317128888E+01  8.117402537E+02  8.413854112E+02  1.250000000E+02  0.00000E+00  9.000E+00
      25     1     1     2     0     0  1.648586284E+02 -8.496607905E+01  9.779230508E+02  1.003173014E+03  1.250000000E+02  0.00000E+00  9.000E+00
      -1     1     1     2     0   501 -2.178859041E+00  1.794790167E+00 -1.798026726E+02  1.798248308E+02  1.907348633E-06  0.00000E+00  9.000E+00
#rwgt            1           1   2.3896171734108216E-002           5      184049           0
</event>
<event>
      5   9999  3.79277E-02  2.91943E+02 -1.00000E+00  1.05978E-01
      21    -1     0     0   502   501  0.000000000E+00  0.000000000E+00  8.760959139E+01  8.760959139E+01  0.000000000E+00  0.00000E+00  9.000E+00
       2    -1     0     0   501     0  0.000000000E+00  0.000000000E+00 -3.000431657E+03  3.000431657E+03  0.000000000E+00  0.00000E+00  9.000E+00
      25     1     1     2     0     0  6.613525499E+01 -1.104394607E+01 -2.049161491E+03  2.054065154E+03  1.250000000E+02  0.00000E+00  9.000E+00
      25     1     1     2     0     0  1.257076195E+02 -2.090169957E+02 -3.700109334E+02  4.604602056E+02  1.250000000E+02  0.00000E+00  9.000E+00
       2     1     1     2   502     0 -1.918428745E+02  2.200609418E+02 -4.936496420E+02  5.735158896E+02  7.629394531E-06  0.00000E+00  9.000E+00
#rwgt            1           1  0.14456655007019747                5      184722           0
</event>
<event>
      5   9999  3.79277E-02  2.53349E+01 -1.00000E+00  1.58319E-01
      -2    -1     0     0     0   501  0.000000000E+00  0.000000000E+00  4.831465616E+02  4.831465616E+02  0.000000000E+00  0.00000E+00  9.000E+00
      21    -1     0     0   501   502  0.000000000E+00  0.000000000E+00 -2.968533388E+02  2.968533388E+02  0.000000000E+00  0.00000E+00  9.000E+00
      25     1     1     2     0     0  1.201803663E+02  3.948342072E+01 -1.607487222E+01  1.785655691E+02  1.250000000E+02  0.00000E+00  9.000E+00
      25     1     1     2     0     0 -1.028017347E+02 -2.104863617E+01 -1.656514022E+02  2.325438213E+02  1.250000000E+02  0.00000E+00  9.000E+00
      -2     1     1     2     0   502 -1.737863157E+01 -1.843478455E+01  3.680194972E+02  3.688905101E+02  0.000000000E+00  0.00000E+00  9.000E+00
#rwgt            1           1   3.5896456900014743E-002           5      184888           0
</event>
<event>
      5   9999  3.79277E-02  6.18979E+01 -1.00000E+00  1.33985E-01
      21    -1     0     0   511   501  0.000000000E+00  0.000000000E+00  4.816270447E+02  4.816270447E+02  0.000000000E+00  0.00000E+00  9.000E+00
      21    -1     0     0   501   502  0.000000000E+00  0.000000000E+00 -2.075879374E+02  2.075879374E+02  0.000000000E+00  0.00000E+00  9.000E+00
      25     1     1     2     0     0 -5.102096544E-01 -1.128792619E+02 -1.165196230E+02  2.048018814E+02  1.250000000E+02  0.00000E+00  9.000E+00
      25     1     1     2     0     0 -6.126630928E+01  1.090048463E+02  1.377390318E+02  2.241264332E+02  1.250000000E+02  0.00000E+00  9.000E+00
      21     1     1     2   511   502  6.177651893E+01  3.874415656E+00  2.528196984E+02  2.602866675E+02  3.814697266E-06  0.00000E+00  9.000E+00
#rwgt            1           1   4.8766733429126810E-002           5      184981           0
</event>
<event>
      5   9999  3.79277E-02  2.36676E+01 -1.00000E+00  1.60553E-01
      21    -1     0     0   502   501  0.000000000E+00  0.000000000E+00  1.237286046E+03  1.237286046E+03  0.000000000E+00  0.00000E+00  9.000E+00
      21    -1     0     0   501   512  0.000000000E+00  0.000000000E+00 -4.571946051E+01  4.571946051E+01  0.000000000E+00  0.00000E+00  9.000E+00
      25     1     1     2     0     0 -1.291745766E+02 -9.078341193E+01  5.748473271E+02  6.090994571E+02  1.250000000E+02  0.00000E+00  9.000E+00
      25     1     1     2     0     0  1.512256411E+02  8.218649696E+01  6.143331172E+02  6.501184459E+02  1.250000000E+02  0.00000E+00  9.000E+00
      21     1     1     2   502   512 -2.205106448E+01  8.596914976E+00  2.386140700E+00  2.378760306E+01  1.299053116E-07  0.00000E+00  9.000E+00
#rwgt            1           1   9.2288934331540118E-002           5      185071           0
</event>
<event>
      5   9999  3.79277E-02  7.50745E+01 -1.00000E+00  1.29700E-01
      21    -1     0     0   511   501  0.000000000E+00  0.000000000E+00  8.003365410E+02  8.003365410E+02  0.000000000E+00  0.00000E+00  9.000E+00
      21    -1     0     0   501   502  0.000000000E+00  0.000000000E+00 -8.747114164E+01  8.747114164E+01  0.000000000E+00  0.00000E+00  9.000E+00
      25     1     1     2     0     0  1.995939594E+01 -5.438216032E+01  3.983294046E+02  4.214820416E+02  1.250000000E+02  0.00000E+00  9.000E+00
      25     1     1     2     0     0  4.250802937E+01  9.602347946E+01  2.250568142E+01  1.647997174E+02  1.250000000E+02  0.00000E+00  9.000E+00
      21     1     1     2   511   502 -6.246742532E+01 -4.164131913E+01  2.920303134E+02  3.015259236E+02  3.814697266E-06  0.00000E+00  9.000E+00
#rwgt            1           1   4.1659908673331289E-002           5      185254           0
</event>
<event>
      5   9999  3.79277E-02  3.71140E+01 -1.00000E+00  1.46886E-01
      21    -1     0     0   502   501  0.000000000E+00  0.000000000E+00  4.554423104E+02  4.554423104E+02  0.000000000E+00  0.00000E+00  9.000E+00
      21    -1     0     0   512   502  0.000000000E+00  0.000000000E+00 -1.432884684E+02  1.432884684E+02  0.000000000E+00  0.00000E+00  9.000E+00
      25     1     1     2     0     0  1.249579446E+02  6.733509492E+01  2.569658291E+02  3.190688644E+02  1.250000000E+02  0.00000E+00  9.000E+00
      25     1     1     2     0     0 -1.273780417E+02 -1.043700707E+02  9.298248706E+01  2.266914645E+02  1.250000000E+02  0.00000E+00  9.000E+00
      21     1     1     2   512   501  2.420097025E+00  3.703497577E+01 -3.779447409E+01  5.297044999E+01  6.743495762E-07  0.00000E+00  9.000E+00
#rwgt            1           1   3.1853865044422669E-002           5      185314           0
</event>
<event>
      5   9999  3.79277E-02  9.04550E+01 -1.00000E+00  1.25820E-01
      21    -1     0     0   502   501  0.000000000E+00  0.000000000E+00  3.481518419E+02  3.481518419E+02  0.000000000E+00  0.00000E+00  9.000E+00
      21    -1     0     0   501   511  0.000000000E+00  0.000000000E+00 -1.954405930E+02  1.954405930E+02  0.000000000E+00  0.00000E+00  9.000E+00
      25     1     1     2     0     0  9.892477776E+01 -9.675533391E+01 -3.038015335E+00  1.864991577E+02  1.250000000E+02  0.00000E+00  9.000E+00
      25     1     1     2     0     0 -1.788388107E+02  5.437787435E+01  1.410715904E+02  2.654552073E+02  1.250000000E+02  0.00000E+00  9.000E+00
      21     1     1     2   502   511  7.991403299E+01  4.237745957E+01  1.467767375E+01  9.163806990E+01  2.105655877E-06  0.00000E+00  9.000E+00
#rwgt            1           1   4.0756845070241070E-002           5      185463           0
</event>
<event>
      5   9999  3.79277E-02  1.28861E+01 -1.00000E+00  1.83833E-01
      21    -1     0     0   502   501  0.000000000E+00  0.000000000E+00  9.557674895E+02  9.557674895E+02  0.000000000E+00  0.00000E+00  9.000E+00
      21    -1     0     0   512   502  0.000000000E+00  0.000000000E+00 -1.252514350E+02  1.252514350E+02  0.000000000E+00  0.00000E+00  9.000E+00
      25     1     1     2     0     0  1.825896104E+02  4.705877031E+01  9.368539949E+01  2.448580155E+02  1.250000000E+02  0.00000E+00  9.000E+00
      25     1     1     2     0     0 -1.749143995E+02 -3.670783582E+01  7.701500475E+02  8.004365109E+02  1.250000000E+02  0.00000E+00  9.000E+00
      21     1     1     2   512   501 -7.675210851E+00 -1.035093449E+01 -3.331939242E+01  3.572439808E+01  1.261592536E-06  0.00000E+00  9.000E+00
#rwgt            1           1   3.4029401313682213E-002           5      185515           0
</event>
<event>
      5   9999  3.79277E-02  1.38088E+01 -1.00000E+00  1.80837E-01
      21    -1     0     0   502   501  0.000000000E+00  0.000000000E+00  4.652983811E+02  4.652983811E+02  0.000000000E+00  0.00000E+00  9.000E+00
      21    -1     0     0   501   511  0.000000000E+00  0.000000000E+00 -4.252794892E+01  4.252794892E+01  0.000000000E+00  0.00000E+00  9.000E+00
      25     1     1     2     0     0  1.089814725E+01 -4.290473782E-01  1.618622744E+02  2.048007557E+02  1.250000000E+02  0.00000E+00  9.000E+00
      25     1     1     2     0     0 -1.091800941E+01  1.423778326E+01  2.601692265E+02  2.891970675E+02  1.250000000E+02  0.00000E+00  9.000E+00
      21     1     1     2   502   511  1.986215413E-02 -1.380873588E+01  7.389313110E-01  1.382850681E+01  1.105099691E-07  0.00000E+00  9.000E+00
#rwgt            1           1   5.5124791248671052E-003           5      185894           0
</event>
<event>
      5   9999  3.79277E-02  7.47630E+01 -1.00000E+00  1.29789E-01
      21    -1     0     0   502   512  0.000000000E+00  0.000000000E+00  5.350821233E+02  5.350821233E+02  0.000000000E+00  0.00000E+00  9.000E+00
      21    -1     0     0   501   502  0.000000000E+00  0.000000000E+00 -2.205080334E+02  2.205080334E+02  0.000000000E+00  0.00000E+00  9.000E+00
      25     1     1     2     0     0  2.222635683E+01 -5.990654036E+01  2.769638239E+02  3.105104898E+02  1.250000000E+02  0.00000E+00  9.000E+00
      25     1     1     2     0     0  5.039463000E+01  7.767426657E+01 -1.664089035E+02  2.277934011E+02  1.250000000E+02  0.00000E+00  9.000E+00
      21     1     1     2   501   512 -7.262098683E+01 -1.776772622E+01  2.040191694E+02  2.172862658E+02  2.697398305E-06  0.00000E+00  9.000E+00
#rwgt            1           1   4.1629191048201952E-002           5      186129           0
</event>
<event>
      5   9999  3.79277E-02  1.88787E+01 -1.00000E+00  1.68463E-01
      21    -1     0     0   511   501  0.000000000E+00  0.000000000E+00  1.365965976E+02  1.365965976E+02  0.000000000E+00  0.00000E+00  9.000E+00
      21    -1     0     0   501   502  0.000000000E+00  0.000000000E+00 -6.679520184E+02  6.679520184E+02  0.000000000E+00  0.00000E+00  9.000E+00
      25     1     1     2     0     0  3.499649966E-01 -1.647821466E+02 -3.107227598E+02  3.732652030E+02  1.250000000E+02  0.00000E+00  9.000E+00
      25     1     1     2     0     0 -1.917194026E+01  1.662450997E+02 -2.911250361E+02  3.583068282E+02  1.250000000E+02  0.00000E+00  9.000E+00
      21     1     1     2   511   502  1.882197526E+01 -1.462953060E+00  7.049237515E+01  7.297658486E+01  9.536743164E-07  0.00000E+00  9.000E+00
#rwgt            1           1   4.4731101059454222E-002           5      186248           0
</event>
<event>
      5   9999  3.79277E-02  1.00585E+02 -1.00000E+00  1.23714E-01
      21    -1     0     0   502   501  0.000000000E+00  0.000000000E+00  1.297756320E+02  1.297756320E+02  0.000000000E+00  0.00000E+00  9.000E+00
       2    -1     0     0   501     0  0.000000000E+00  0.000000000E+00 -8.052012662E+02  8.052012662E+02  0.000000000E+00  0.00000E+00  9.000E+00
      25     1     1     2     0     0 -1.467673846E+02  1.158095559E+02 -5.495959258E+01  2.315125812E+02  1.250000000E+02  0.00000E+00  9.000E+00
      25     1     1     2     0     0  5.038307927E+01 -1.445736139E+02 -2.451435132E+02  3.148973270E+02  1.250000000E+02  0.00000E+00  9.000E+00
       2     1     1     2   502     0  9.638430530E+01  2.876405793E+01 -3.753225285E+02  3.885669900E+02  5.394796609E-06  0.00000E+00  9.000E+00
#rwgt            1           1   7.4326187444895039E-002           5      186426           0
</event>
<event>
      5   9999  3.79277E-02  3.38609E+01 -1.00000E+00  1.49476E-01
      21    -1     0     0   502   501  0.000000000E+00  0.000000000E+00  1.111204611E+02  1.111204611E+02  0.000000000E+00  0.00000E+00  9.000E+00
      21    -1     0     0   501   511  0.000000000E+00  0.000000000E+00 -6.221431134E+02  6.221431134E+02  0.000000000E+00  0.00000E+00  9.000E+00
      25     1     1     2     0     0  1.647455926E+02 -1.156256192E+02 -2.333465954E+02  3.325447755E+02  1.250000000E+02  0.00000E+00  9.000E+00
      25     1     1     2     0     0 -1.513494080E+02  1.467239273E+02 -2.012007581E+02  3.170824801E+02  1.250000000E+02  0.00000E+00  9.000E+00
      21     1     1     2   502   511 -1.339618463E+01 -3.109830801E+01 -7.647529875E+01  8.363631892E+01  0.000000000E+00  0.00000E+00  9.000E+00
#rwgt            1           1   3.6120892990860735E-002           5      186585           0
</event>
<event>
      5   9999  3.79277E-02  2.49996E+01 -1.00000E+00  1.58751E-01
      21    -1     0     0   502   501  0.000000000E+00  0.000000000E+00  2.588147355E+03  2.588147355E+03  0.000000000E+00  0.00000E+00  9.000E+00
      21    -1     0     0   512   502  0.000000000E+00  0.000000000E+00 -1.418893729E+01  1.418893729E+01  0.000000000E+00  0.00000E+00  9.000E+00
      25     1     1     2     0     0  2.139703448E+01  1.083851601E+02  1.804583943E+03  1.812278506E+03  1.250000000E+02  0.00000E+00  9.000E+00
      25     1     1     2     0     0 -3.087266157E+01 -8.525088598E+01  6.495828441E+02  6.676853347E+02  1.250000000E+02  0.00000E+00  9.000E+00
      21     1     1     2   512   501  9.475627085E+00 -2.313427410E+01  1.197916305E+02  1.223724515E+02  2.336015456E-06  0.00000E+00  9.000E+00
#rwgt            1           1   6.2176811841334549E-002           5      186704           0
</event>
<event>
      5   9999 -4.35154E-02  5.29193E+01 -1.00000E+00  1.37684E-01
      21    -1     0     0   502   501  0.000000000E+00  0.000000000E+00  1.887470159E+03  1.887470159E+03  0.000000000E+00  0.00000E+00  9.000E+00
      21    -1     0     0   511   502  0.000000000E+00  0.000000000E+00 -2.089379366E+01  2.089379366E+01  0.000000000E+00  0.00000E+00  9.000E+00
      25     1     1     2     0     0  8.692092743E+01 -6.474275897E+01  1.087901843E+03  1.100410057E+03  1.250000000E+02  0.00000E+00  9.000E+00
      25     1     1     2     0     0 -3.501981452E+01  7.507358900E+01  6.761272742E+02  6.925572338E+02  1.250000000E+02  0.00000E+00  9.000E+00
      21     1     1     2   511   501 -5.190111290E+01 -1.033083003E+01  1.025472478E+02  1.153966620E+02  2.697398305E-06  0.00000E+00  9.000E+00
#rwgt            1           1 -0.69503787013546492                5      186879           0
</event>
<event>
      5   9999  3.79277E-02  1.97637E+02 -1.00000E+00  1.11836E-01
      21    -1     0     0   502   501  0.000000000E+00  0.000000000E+00  3.354521006E+02  3.354521006E+02  0.000000000E+00  0.00000E+00  9.000E+00
       1    -1     0     0   501     0  0.000000000E+00  0.000000000E+00 -1.253039300E+03  1.253039300E+03  0.000000000E+00  0.00000E+00  9.000E+00
      25     1     1     2     0     0  2.178318094E+02 -1.773387521E+02  1.067059163E+02  3.254395224E+02  1.250000000E+02  0.00000E+00  9.000E+00
      25     1     1     2     0     0 -2.312587062E+01  1.434245932E+02  2.682021290E+01  1.935193624E+02  1.250000000E+02  0.00000E+00  9.000E+00
       1     1     1     2   502     0 -1.947059387E+02  3.391415895E+01 -1.051113329E+03  1.069532516E+03  0.000000000E+00  0.00000E+00  9.000E+00
#rwgt            1           1   6.5979541104526473E-002           5      187002           0
</event>
<event>
      5   9999  3.79277E-02  9.08394E+01 -1.00000E+00  1.25734E-01
      21    -1     0     0   502   501  0.000000000E+00  0.000000000E+00  2.667429832E+02  2.667429832E+02  0.000000000E+00  0.00000E+00  9.000E+00
      21    -1     0     0   501   511  0.000000000E+00  0.000000000E+00 -3.871767443E+02  3.871767443E+02  0.000000000E+00  0.00000E+00  9.000E+00
      25     1     1     2     0     0  5.772688703E+01  2.640443323E+01 -2.053738472E+02  2.486624312E+02  1.250000000E+02  0.00000E+00  9.000E+00
      25     1     1     2     0     0  2.706977677E+01 -5.898244479E+01  2.086749707E+02  2.517577109E+02  1.250000000E+02  0.00000E+00  9.000E+00
      21     1     1     2   502   511 -8.479666381E+01  3.257801156E+01 -1.237348846E+02  1.534995853E+02  1.907348633E-06  0.00000E+00  9.000E+00
#rwgt            1           1   4.8478567044186099E-002           5      187064           0
</event>
<event>
      5   9999  3.79277E-02  4.37681E+01 -1.00000E+00  1.42456E-01
      21    -1     0     0   502   512  0.000000000E+00  0.000000000E+00  8.461883221E+01  8.461883221E+01  0.000000000E+00  0.00000E+00  9.000E+00
      21    -1     0     0   501   502  0.000000000E+00  0.000000000E+00 -5.479017481E+02  5.479017481E+02  0.000000000E+00  0.00000E+00  9.000E+00
      25     1     1     2     0     0  5.982219265E+01 -6.025121916E+01 -4.737148077E+01  1.583602265E+02  1.250000000E+02  0.00000E+00  9.000E+00
      25     1     1     2     0     0 -7.683318999E+01  1.005782389E+02 -3.710339259E+02  4.114735658E+02  1.250000000E+02  0.00000E+00  9.000E+00
      21     1     1     2   501   512  1.701099734E+01 -4.032701974E+01 -4.487750922E+01  6.268678796E+01  1.261592536E-06  0.00000E+00  9.000E+00
#rwgt            1           1   4.2215522064125113E-002           5      187194           0
</event>
<event>
      5   9999  3.79277E-02  9.13562E+00 -1.00000E+00  2.00408E-01
       2    -1     0     0   502     0  0.000000000E+00  0.000000000E+00  1.522587547E+03  1.522587547E+03  0.000000000E+00  0.00000E+00  9.000E+00
      21    -1     0     0   501   502  0.000000000E+00  0.000000000E+00 -1.504995898E+02  1.504995898E+02  0.000000000E+00  0.00000E+00  9.000E+00
      25     1     1     2     0     0  1.917074239E+02  5.136542980E+01  2.335650255E+02  3.310102187E+02  1.250000000E+02  0.00000E+00  9.000E+00
      25     1     1     2     0     0 -1.865817563E+02 -5.892764863E+01  3.068876131E+01  2.342050803E+02  1.250000000E+02  0.00000E+00  9.000E+00
       2     1     1     2   501     0 -5.125667580E+00  7.562218826E+00  1.107834170E+03  1.107871838E+03  2.157918644E-05  0.00000E+00  9.000E+00
#rwgt            2          18   3.1078769488673911E-004           5      187436           0
</event>
<event>
      5   9999  3.79277E-02  5.89799E+00 -1.00000E+00  2.26635E-01
      21    -1     0     0   502   501  0.000000000E+00  0.000000000E+00  4.602489736E+01  4.602489736E+01  0.000000000E+00  0.00000E+00  9.000E+00
      21    -1     0     0   501   511  0.000000000E+00  0.000000000E+00 -9.943349750E+02  9.943349750E+02  0.000000000E+00  0.00000E+00  9.000E+00
      25     1     1     2     0     0 -4.090678159E-02 -7.368833774E+01 -8.284541753E+02  8.410655702E+02  1.250000000E+02  0.00000E+00  9.000E+00
      25     1     1     2     0     0 -1.549784166E+00  6.800890559E+01 -8.893410275E+01  1.678150402E+02  1.250000000E+02  0.00000E+00  9.000E+00
      21     1     1     2   502   511  1.590690948E+00  5.679432156E+00 -3.092179959E+01  3.147926202E+01  0.000000000E+00  0.00000E+00  9.000E+00
#rwgt            1           1   5.0579456167820648E-002           5      187455           0
</event>
<event>
      5   9999  3.79277E-02  3.02970E+01 -1.00000E+00  1.52743E-01
      21    -1     0     0   502   501  0.000000000E+00  0.000000000E+00  3.413654568E+02  3.413654568E+02  0.000000000E+00  0.00000E+00  9.000E+00
      21    -1     0     0   512   502  0.000000000E+00  0.000000000E+00 -2.072529341E+02  2.072529341E+02  0.000000000E+00  0.00000E+00  9.000E+00
      25     1     1     2     0     0 -2.110600064E+02  4.982649364E+01  1.196545077E+02  2.774368522E+02  1.250000000E+02  0.00000E+00  9.000E+00
      25     1     1     2     0     0  1.854310999E+02 -3.366898886E+01  4.225772606E+01  2.300630544E+02  1.250000000E+02  0.00000E+00  9.000E+00
      21     1     1     2   512   501  2.562890657E+01 -1.615750477E+01 -2.779971098E+01  4.111848420E+01  7.539457465E-07  0.00000E+00  9.000E+00
#rwgt            1           1   2.5332091431128637E-002           5      187835           0
</event>
<event>
      5   9999  3.79277E-02  2.51061E+01 -1.00000E+00  1.58613E-01
       1    -1     0     0   502     0  0.000000000E+00  0.000000000E+00  4.195037934E+02  4.195037934E+02  0.000000000E+00  0.00000E+00  9.000E+00
      21    -1     0     0   501   502  0.000000000E+00  0.000000000E+00 -3.281393316E+02  3.281393316E+02  0.000000000E+00  0.00000E+00  9.000E+00
      25     1     1     2     0     0 -6.500123708E+01 -1.253817695E+02 -6.219808102E+01  1.985934295E+02  1.250000000E+02  0.00000E+00  9.000E+00
      25     1     1     2     0     0  5.498615147E+01  1.484038608E+02 -1.456604449E+02  2.487752961E+02  1.250000000E+02  0.00000E+00  9.000E+00
       1     1     1     2   501     0  1.001508561E+01 -2.302209136E+01  2.992229876E+02  3.002743994E+02  5.394796609E-06  0.00000E+00  9.000E+00
#rwgt            1           1   3.7205797058288775E-002           5      187954           0
</event>
<event>
      5   9999  3.79277E-02  4.06653E+01 -1.00000E+00  1.44397E-01
      21    -1     0     0   502   511  0.000000000E+00  0.000000000E+00  1.545836201E+02  1.545836201E+02  0.000000000E+00  0.00000E+00  9.000E+00
      21    -1     0     0   501   502  0.000000000E+00  0.000000000E+00 -4.326870688E+02  4.326870688E+02  0.000000000E+00  0.00000E+00  9.000E+00
      25     1     1     2     0     0  7.069638360E+01  1.232783776E+02 -2.550634609E+02  3.176128242E+02  1.250000000E+02  0.00000E+00  9.000E+00
      25     1     1     2     0     0 -1.112716520E+02 -1.259823974E+02 -5.654426780E+01  2.169681986E+02  1.250000000E+02  0.00000E+00  9.000E+00
      21     1     1     2   501   511  4.057526843E+01  2.704019794E+00  3.350427992E+01  5.268966601E+01  0.000000000E+00  0.00000E+00  9.000E+00
#rwgt            1           1   2.8146251824831877E-002           5      188088           0
</event>
<event>
      5   9999  3.79277E-02  9.90658E+01 -1.00000E+00  1.24012E-01
      21    -1     0     0   502   512  0.000000000E+00  0.000000000E+00  1.774117335E+02  1.774117335E+02  0.000000000E+00  0.00000E+00  9.000E+00
      21    -1     0     0   501   502  0.000000000E+00  0.000000000E+00 -3.977566170E+02  3.977566170E+02  0.000000000E+00  0.00000E+00  9.000E+00
      25     1     1     2     0     0 -9.152082271E+01  1.200850415E+02 -1.731422904E+02  2.615334221E+02  1.250000000E+02  0.00000E+00  9.000E+00
      25     1     1     2     0     0 -7.214688889E+00 -1.120017722E+02 -1.058037938E+02  1.985343584E+02  1.250000000E+02  0.00000E+00  9.000E+00
      21     1     1     2   501   512  9.873551159E+01 -8.083269296E+00  5.860120064E+01  1.151005700E+02  2.132480600E-06  0.00000E+00  9.000E+00
#rwgt            1           1   2.6334451794270314E-002           5      188297           0
</event>
<event>
      5   9999  3.79277E-02  3.69546E+01 -1.00000E+00  1.47006E-01
      21    -1     0     0   502   501  0.000000000E+00  0.000000000E+00  2.718137059E+02  2.718137059E+02  0.000000000E+00  0.00000E+00  9.000E+00
      21    -1     0     0   501   511  0.000000000E+00  0.000000000E+00 -1.454179919E+02  1.454179919E+02  0.000000000E+00  0.00000E+00  9.000E+00
      25     1     1     2     0     0  4.004740729E+01  1.002475516E+02  1.358571947E+02  2.138587005E+02  1.250000000E+02  0.00000E+00  9.000E+00
      25     1     1     2     0     0 -7.216276379E+01 -8.196519550E+01 -1.133642781E+01  1.663708879E+02  1.250000000E+02  0.00000E+00  9.000E+00
      21     1     1     2   502   511  3.211535650E+01 -1.828235610E+01  1.874947111E+00  3.700210932E+01  6.566662948E-07  0.00000E+00  9.000E+00
#rwgt            1           1   3.2404571497705731E-002           5      188403           0
</event>
<event>
      5   9999  3.79277E-02  8.11272E+01 -1.00000E+00  1.28056E-01
      21    -1     0     0   512   501  0.000000000E+00  0.000000000E+00  1.198732012E+02  1.198732012E+02  0.000000000E+00  0.00000E+00  9.000E+00
      21    -1     0     0   501   502  0.000000000E+00  0.000000000E+00 -4.883079266E+02  4.883079266E+02  0.000000000E+00  0.00000E+00  9.000E+00
      25     1     1     2     0     0  4.805846098E+01  4.991855556E+01 -2.918198973E+02  3.249389640E+02  1.250000000E+02  0.00000E+00  9.000E+00
      25     1     1     2     0     0 -1.265559823E+02 -7.040657719E+01 -4.823723008E+01  1.972950408E+02  1.250000000E+02  0.00000E+00  9.000E+00
      21     1     1     2   512   502  7.849752129E+01  2.048802163E+01 -2.837759812E+01  8.594712302E+01  8.920806376E-07  0.00000E+00  9.000E+00
#rwgt            1           1   4.1287009265475544E-002           5      188481           0
</event>
<event>
      5   9999  3.79277E-02  1.11269E+01 -1.00000E+00  1.90545E-01
      21    -1     0     0   502   501  0.000000000E+00  0.000000000E+00  4.427583580E+02  4.427583580E+02  0.000000000E+00  0.00000E+00  9.000E+00
      21    -1     0     0   501   511  0.000000000E+00  0.000000000E+00 -1.031224636E+02  1.031224636E+02  0.000000000E+00  0.00000E+00  9.000E+00
      25     1     1     2     0     0  7.959834059E+01  1.436033542E+02  1.533669410E+02  2.571074440E+02  1.250000000E+02  0.00000E+00  9.000E+00
      25     1     1     2     0     0 -6.858115817E+01 -1.451617243E+02  1.885658418E+02  2.774119286E+02  1.250000000E+02  0.00000E+00  9.000E+00
      21     1     1     2   502   511 -1.101718241E+01  1.558370055E+00 -2.296888480E+00  1.136144895E+01  1.460009660E-07  0.00000E+00  9.000E+00
#rwgt            1           1  0.19514970334192425                5      188687           0
</event>
<event>
      5   9999  3.79277E-02  4.64775E+01 -1.00000E+00  1.40910E-01
      21    -1     0     0   502   501  0.000000000E+00  0.000000000E+00  7.605611837E+01  7.605611837E+01  0.000000000E+00  0.00000E+00  9.000E+00
      21    -1     0     0   512   502  0.000000000E+00  0.000000000E+00 -7.421100963E+02  7.421100963E+02  0.000000000E+00  0.00000E+00  9.000E+00
      25     1     1     2     0     0 -4.504200763E+01  5.125186453E+01 -5.624942412E+02  5.802415940E+02  1.250000000E+02  0.00000E+00  9.000E+00
      25     1     1     2     0     0  3.588590866E+00 -3.023359263E+01 -4.764138471E+00  1.287425537E+02  1.250000000E+02  0.00000E+00  9.000E+00
      21     1     1     2   512   501  4.145341677E+01 -2.101827190E+01 -9.879559831E+01  1.091820670E+02  0.000000000E+00  0.00000E+00  9.000E+00
#rwgt            1           1   4.2607359224085692E-002           5      189150           0
</event>
<event>
      5   9999 -3.79277E-02  1.51633E+01 -1.00000E+00  1.76942E-01
      21    -1     0     0   502   501  0.000000000E+00  0.000000000E+00  5.758823454E+01  5.758823454E+01  0.000000000E+00  0.00000E+00  9.000E+00
      21    -1     0     0   501   511  0.000000000E+00  0.000000000E+00 -1.854683942E+03  1.854683942E+03  0.000000000E+00  0.00000E+00  9.000E+00
      25     1     1     2     0     0  1.646662057E+02  1.763616817E+02 -6.336587372E+02  6.894684889E+02  1.250000000E+02  0.00000E+00  9.000E+00
      25     1     1     2     0     0 -1.558587255E+02 -1.640184670E+02 -5.349118933E+02  5.940957275E+02  1.250000000E+02  0.00000E+00  9.000E+00
      21     1     1     2   502   511 -8.807480148E+00 -1.234321462E+01 -6.285250774E+02  6.287079605E+02  0.000000000E+00  0.00000E+00  9.000E+00
#rwgt            1           1  -9.6912506758151509E-002           5      189480           0
</event>
<event>
      5   9999  3.79277E-02  5.12452E+00 -1.00000E+00  2.36665E-01
      21    -1     0     0   502   501  0.000000000E+00  0.000000000E+00  8.209865613E+02  8.209865613E+02  0.000000000E+00  0.00000E+00  9.000E+00
      21    -1     0     0   512   502  0.000000000E+00  0.000000000E+00 -8.894166898E+01  8.894166898E+01  0.000000000E+00  0.00000E+00  9.000E+00
      25     1     1     2     0     0  1.245639003E+02 -1.718924313E+02  1.902134594E+02  3.112383867E+02  1.250000000E+02  0.00000E+00  9.000E+00
      25     1     1     2     0     0 -1.212165952E+02  1.680121980E+02  5.420052920E+02  5.935623794E+02  1.250000000E+02  0.00000E+00  9.000E+00
      21     1     1     2   512   501 -3.347305127E+00  3.880233267E+00 -1.738591409E-01  5.127464171E+00  1.142759744E-07  0.00000E+00  9.000E+00
#rwgt            1           1   6.1705459978809322E-002           5      189856           0
</event>
<event>
      5   9999  3.79277E-02  1.03203E+02 -1.00000E+00  1.23215E-01
      21    -1     0     0   502   501  0.000000000E+00  0.000000000E+00  1.885368992E+02  1.885368992E+02  0.000000000E+00  0.00000E+00  9.000E+00
      21    -1     0     0   501   511  0.000000000E+00  0.000000000E+00 -5.619199352E+02  5.619199352E+02  0.000000000E+00  0.00000E+00  9.000E+00
      25     1     1     2     0     0 -1.320002951E+02  4.977218919E+01 -2.676573583E+01  1.903752960E+02  1.250000000E+02  0.00000E+00  9.000E+00
      25     1     1     2     0     0  2.056595652E+02  2.251353564E+01 -5.109840369E+01  2.470602415E+02  1.250000000E+02  0.00000E+00  9.000E+00
      21     1     1     2   502   511 -7.365927014E+01 -7.228572483E+01 -2.955188966E+02  3.130212969E+02  3.814697266E-06  0.00000E+00  9.000E+00
#rwgt            1           1   1.7212217196489941E-002           5      190267           0
</event>
<event>
      5   9999  3.79277E-02  2.24430E+01 -1.00000E+00  1.62343E-01
       2    -1     0     0   502     0  0.000000000E+00  0.000000000E+00  8.934670055E+02  8.934670055E+02  0.000000000E+00  0.00000E+00  9.000E+00
      21    -1     0     0   501   502  0.000000000E+00  0.000000000E+00 -7.650447848E+02  7.650447848E+02  0.000000000E+00  0.00000E+00  9.000E+00
      25     1     1     2     0     0 -5.794501185E+01 -1.135639871E+02 -1.264827009E+02  2.188087685E+02  1.250000000E+02  0.00000E+00  9.000E+00
      25     1     1     2     0     0  4.804959295E+01  9.342026625E+01 -5.809942428E+02  6.035026260E+02  1.250000000E+02  0.00000E+00  9.000E+00
       2     1     1     2   501     0  9.895418897E+00  2.014372082E+01  8.358991644E+02  8.362003957E+02  1.078959322E-05  0.00000E+00  9.000E+00
#rwgt            1           1   3.9609652732877677E-002           5      190404           0
</event>
<event>
      5   9999  3.79277E-02  9.48047E+01 -1.00000E+00  1.24879E-01
      21    -1     0     0   502   501  0.000000000E+00  0.000000000E+00  1.496676294E+02  1.496676294E+02  0.000000000E+00  0.00000E+00  9.000E+00
      21    -1     0     0   511   502  0.000000000E+00  0.000000000E+00 -3.808177557E+02  3.808177557E+02  0.000000000E+00  0.00000E+00  9.000E+00
      25     1     1     2     0     0  1.209833619E+02  5.664740665E+01 -1.769525654E+02  2.545252697E+02  1.250000000E+02  0.00000E+00  9.000E+00
      25     1     1     2     0     0 -2.932318858E+01 -3.243302685E+01  4.392367406E+01  1.395207503E+02  1.250000000E+02  0.00000E+00  9.000E+00
      21     1     1     2   511   501 -9.166017335E+01 -2.421437981E+01 -9.812123501E+01  1.364393650E+02  1.907348633E-06  0.00000E+00  9.000E+00
#rwgt            1           1   2.1464467145542003E-002           5      190633           0
</event>
<event>
      5   9999  3.79277E-02  5.07018E+01 -1.00000E+00  1.38731E-01
      21    -1     0     0   502   501  0.000000000E+00  0.000000000E+00  4.429831285E+02  4.429831285E+02  0.000000000E+00  0.00000E+00  9.000E+00
      21    -1     0     0   501   512  0.000000000E+00  0.000000000E+00 -1.167261754E+02  1.167261754E+02  0.000000000E+00  0.00000E+00  9.000E+00
      25     1     1     2     0     0 -1.083105337E+01  1.000397211E+02  2.338028540E+02  2.835736801E+02  1.250000000E+02  0.00000E+00  9.000E+00
      25     1     1     2     0     0  5.869730105E+01 -8.332173900E+01  1.347036476E+02  2.101379500E+02  1.250000000E+02  0.00000E+00  9.000E+00
      21     1     1     2   502   512 -4.786624769E+01 -1.671798211E+01 -4.224954853E+01  6.599767378E+01  8.259061849E-07  0.00000E+00  9.000E+00
#rwgt            1           1   3.2291515443743639E-002           5      190751           0
</event>
<event>
      5   9999 -3.79277E-02  5.57280E+01 -1.00000E+00  1.36440E-01
      21    -1     0     0   502   511  0.000000000E+00  0.000000000E+00  1.071654886E+02  1.071654886E+02  0.000000000E+00  0.00000E+00  9.000E+00
      21    -1     0     0   501   502  0.000000000E+00  0.000000000E+00 -1.208817911E+03  1.208817911E+03  0.000000000E+00  0.00000E+00  9.000E+00
      25     1     1     2     0     0  2.364423801E+01 -3.046116962E+02 -3.198244582E+02  4.596303074E+02  1.250000000E+02  0.00000E+00  9.000E+00
      25     1     1     2     0     0 -5.026636074E+01  2.556538829E+02 -7.004678681E+02  7.577373219E+02  1.250000000E+02  0.00000E+00  9.000E+00
      21     1     1     2   501   511  2.662212273E+01  4.895781325E+01 -8.136009619E+01  9.861577028E+01  1.348699152E-06  0.00000E+00  9.000E+00
#rwgt            1           1  -3.2545008209353514E-002           5      190844           0
</event>
<event>
      5   9999  3.79277E-02  1.51685E+02 -1.00000E+00  1.16202E-01
       2    -1     0     0   502     0  0.000000000E+00  0.000000000E+00  1.573328395E+03  1.573328395E+03  0.000000000E+00  0.00000E+00  9.000E+00
      21    -1     0     0   501   502  0.000000000E+00  0.000000000E+00 -6.721312401E+02  6.721312401E+02  0.000000000E+00  0.00000E+00  9.000E+00
      25     1     1     2     0     0  1.545327169E+02  3.722082401E+02 -7.114817398E+01  4.279093330E+02  1.250000000E+02  0.00000E+00  9.000E+00
      25     1     1     2     0     0 -1.237903540E+01 -3.192873311E+02 -3.478954123E+02  4.886244552E+02  1.250000000E+02  0.00000E+00  9.000E+00
       2     1     1     2   501     0 -1.421536815E+02 -5.292090902E+01  1.320240741E+03  1.328925847E+03  1.525878906E-05  0.00000E+00  9.000E+00
#rwgt            1           1   5.2960769413220227E-002           5      191023           0
</event>
<event>
      5   9999 -3.79277E-02  2.16578E+01 -1.00000E+00  1.63565E-01
      21    -1     0     0   502   501  0.000000000E+00  0.000000000E+00  2.127917655E+02  2.127917655E+02  0.000000000E+00  0.00000E+00  9.000E+00
      21    -1     0     0   501   511  0.000000000E+00  0.000000000E+00 -1.093938741E+03  1.093938741E+03  0.000000000E+00  0.00000E+00  9.000E+00
      25     1     1     2     0     0 -1.805364632E+02 -5.309181786E+01 -3.033316218E+02  3.782158490E+02  1.250000000E+02  0.00000E+00  9.000E+00
      25     1     1     2     0     0  1.624917224E+02  4.111486778E+01  1.127883257E+02  2.375714600E+02  1.250000000E+02  0.00000E+00  9.000E+00
      21     1     1     2   502   511  1.804474079E+01  1.197695008E+01 -6.906036789E+02  6.909431969E+02  7.629394531E-06  0.00000E+00  9.000E+00
#rwgt            1           1  -2.2715455601250292E-002           5      191206           0
</event>
<event>
      5   9999 -3.79277E-02  2.66719E+01 -1.00000E+00  1.56673E-01
      21    -1     0     0   512   501  0.000000000E+00  0.000000000E+00  7.467743766E+02  7.467743766E+02  0.000000000E+00  0.00000E+00  9.000E+00
      21    -1     0     0   501   502  0.000000000E+00  0.000000000E+00 -8.933814642E+02  8.933814642E+02  0.000000000E+00  0.00000E+00  9.000E+00
      25     1     1     2     0     0  1.459446124E+02 -1.120565828E+02 -5.154076414E+02  5.613613315E+02  1.250000000E+02  0.00000E+00  9.000E+00
      25     1     1     2     0     0 -1.375754126E+02  8.673173608E+01 -3.250892634E+02  3.843922702E+02  1.250000000E+02  0.00000E+00  9.000E+00
      21     1     1     2   512   502 -8.369199774E+00  2.532484671E+01  6.938898172E+02  6.944022392E+02  7.629394531E-06  0.00000E+00  9.000E+00
#rwgt            1           1 -0.10547134176513435                5      191471           0
</event>
<event>
      5   9999 -3.79277E-02  1.60784E+01 -1.00000E+00  1.74590E-01
      21    -1     0     0   502   511  0.000000000E+00  0.000000000E+00  2.025478146E+03  2.025478146E+03  0.000000000E+00  0.00000E+00  9.000E+00
      21    -1     0     0   501   502  0.000000000E+00  0.000000000E+00 -3.259943010E+01  3.259943010E+01  0.000000000E+00  0.00000E+00  9.000E+00
      25     1     1     2     0     0 -1.820717610E+02  9.034374345E+01  1.145103778E+03  1.169700723E+03  1.250000000E+02  0.00000E+00  9.000E+00
      25     1     1     2     0     0  1.974362825E+02 -8.560613842E+01  7.809402377E+02  8.196353771E+02  1.250000000E+02  0.00000E+00  9.000E+00
      21     1     1     2   501   511 -1.536452144E+01 -4.737605023E+00  6.683470030E+01  6.874147645E+01  1.348699152E-06  0.00000E+00  9.000E+00
#rwgt            1           1 -0.20791102136699863                5      191611           0
</event>
<event>
      5   9999  3.79277E-02  4.54879E+01 -1.00000E+00  1.41460E-01
      21    -1     0     0   512   501  0.000000000E+00  0.000000000E+00  5.745602539E+01  5.745602539E+01  0.000000000E+00  0.00000E+00  9.000E+00
      21    -1     0     0   501   502  0.000000000E+00  0.000000000E+00 -2.545543827E+03  2.545543827E+03  0.000000000E+00  0.00000E+00  9.000E+00
      25     1     1     2     0     0 -9.587173365E+01  9.989035269E+01 -2.347245344E+03  2.354645446E+03  1.250000000E+02  0.00000E+00  9.000E+00
      25     1     1     2     0     0  6.089921373E+01 -7.080296534E+01 -8.998576932E+01  1.801227715E+02  1.250000000E+02  0.00000E+00  9.000E+00
      21     1     1     2   512   502  3.497251992E+01 -2.908738735E+01 -5.085668855E+01  6.823163506E+01  1.907348633E-06  0.00000E+00  9.000E+00
#rwgt            1           1  0.11811035978944667                5      191780           0
</event>
<event>
      5   9999  3.79277E-02  2.49515E+01 -1.00000E+00  1.58814E-01
      21    -1     0     0   502   501  0.000000000E+00  0.000000000E+00  2.585170863E+02  2.585170863E+02  0.000000000E+00  0.00000E+00  9.000E+00
      21    -1     0     0   501   511  0.000000000E+00  0.000000000E+00 -3.013955932E+02  3.013955932E+02  0.000000000E+00  0.00000E+00  9.000E+00
      25     1     1     2     0     0 -9.911087462E+01 -1.346759256E+02  1.357304380E+02  2.490147028E+02  1.250000000E+02  0.00000E+00  9.000E+00
      25     1     1     2     0     0  1.054951710E+02  1.587968329E+02 -1.497873684E+02  2.727763204E+02  1.250000000E+02  0.00000E+00  9.000E+00
      21     1     1     2   502   511 -6.384296385E+00 -2.412090730E+01 -2.882157647E+01  3.812165631E+01  7.539457465E-07  0.00000E+00  9.000E+00
#rwgt            1           1   3.0165743436092029E-002           5      192036           0
</event>
<event>
      5   9999  3.79277E-02  1.50878E+02 -1.00000E+00  1.16293E-01
      21    -1     0     0   512   501  0.000000000E+00  0.000000000E+00  5.926694881E+02  5.926694881E+02  0.000000000E+00  0.00000E+00  9.000E+00
      21    -1     0     0   501   502  0.000000000E+00  0.000000000E+00 -3.391896186E+02  3.391896186E+02  0.000000000E+00  0.00000E+00  9.000E+00
      25     1     1     2     0     0  4.815730758E+01  2.638310954E+02  1.459017368E+02  3.299064867E+02  1.250000000E+02  0.00000E+00  9.000E+00
      25     1     1     2     0     0 -2.127703824E+00 -1.201463298E+02 -1.967660984E+02  2.622623975E+02  1.250000000E+02  0.00000E+00  9.000E+00
      21     1     1     2   512   502 -4.602960376E+01 -1.436847655E+02  3.043442311E+02  3.396902225E+02  3.814697266E-06  0.00000E+00  9.000E+00
#rwgt            2          11   1.4705270916284521E-003           5      192176           0
</event>
<event>
      5   9999  3.79277E-02  5.71530E+01 -1.00000E+00  1.35841E-01
      21    -1     0     0   502   501  0.000000000E+00  0.000000000E+00  5.449520208E+02  5.449520208E+02  0.000000000E+00  0.00000E+00  9.000E+00
       5    -1     0     0   501     0  0.000000000E+00  0.000000000E+00 -7.891337403E+01  7.891337403E+01  0.000000000E+00  0.00000E+00  9.000E+00
      25     1     1     2     0     0 -4.723434649E+01 -1.160755235E+02  2.939146648E+02  3.430968389E+02  1.250000000E+02  0.00000E+00  9.000E+00
      25     1     1     2     0     0  6.187016506E+01  6.082829439E+01  1.628383582E+02  2.228661698E+02  1.250000000E+02  0.00000E+00  9.000E+00
       5     1     1     2   502     0 -1.463581857E+01  5.524722916E+01  9.285623743E+00  5.790238617E+01  8.513246093E-07  0.00000E+00  9.000E+00
#rwgt            1           1   3.6281034988037822E-002           5      192196           0
</event>
<event>
      5   9999  3.79277E-02  5.40070E+00 -1.00000E+00  2.32812E-01
      21    -1     0     0   502   511  0.000000000E+00  0.000000000E+00  6.692615717E+02  6.692615717E+02  0.000000000E+00  0.00000E+00  9.000E+00
      21    -1     0     0   501   502  0.000000000E+00  0.000000000E+00 -1.054613049E+02  1.054613049E+02  0.000000000E+00  0.00000E+00  9.000E+00
      25     1     1     2     0     0 -3.356676146E+01  1.334393976E+02  5.131757543E+01  1.928504443E+02  1.250000000E+02  0.00000E+00  9.000E+00
      25     1     1     2     0     0  3.896176580E+01 -1.331914204E+02  2.168640195E+02  2.862044315E+02  1.250000000E+02  0.00000E+00  9.000E+00
      21     1     1     2   501   511 -5.395004339E+00 -2.479772051E-01  2.956186719E+02  2.956680009E+02  3.814697266E-06  0.00000E+00  9.000E+00
#rwgt            1           1   2.2855874196533500E-002           5      192296           0
</event>
<event>
      5   9999  3.79277E-02  2.93599E+01 -1.00000E+00  1.53693E-01
       1    -1     0     0   502     0  0.000000000E+00  0.000000000E+00  8.089721191E+02  8.089721191E+02  0.000000000E+00  0.00000E+00  9.000E+00
      21    -1     0     0   501   502  0.000000000E+00  0.000000000E+00 -2.586956485E+02  2.586956485E+02  0.000000000E+00  0.00000E+00  9.000E+00
      25     1     1     2     0     0  2.649877186E+01  2.596323522E+02  2.752640069E+01  2.906782516E+02  1.250000000E+02  0.00000E+00  9.000E+00
      25     1     1     2     0     0 -3.464648622E+01 -2.314256746E+02  1.218191660E+01  2.655779000E+02  1.250000000E+02  0.00000E+00  9.000E+00
       1     1     1     2   501     0  8.147714367E+00 -2.820667753E+01  5.105681533E+02  5.114116161E+02  0.000000000E+00  0.00000E+00  9.000E+00
#rwgt            1           1   4.5403406120093970E-002           5      192621           0
</event>
<event>
      5   9999  3.79277E-02  9.21189E+01 -1.00000E+00  1.25453E-01
       2    -1     0     0   502     0  0.000000000E+00  0.000000000E+00  9.963960928E+01  9.963960928E+01  0.000000000E+00  0.00000E+00  9.000E+00
      21    -1     0     0   501   502  0.000000000E+00  0.000000000E+00 -6.677370105E+02  6.677370105E+02  0.000000000E+00  0.00000E+00  9.000E+00
      25     1     1     2     0     0  6.435046815E+01 -1.505268664E+01 -2.036349494E+02  2.479107878E+02  1.250000000E+02  0.00000E+00  9.000E+00
      25     1     1     2     0     0 -3.077686032E+01 -7.073022182E+01 -3.957892479E+02  4.221659723E+02  1.250000000E+02  0.00000E+00  9.000E+00
       2     1     1     2   501     0 -3.357360783E+01  8.578290846E+01  3.132679607E+01  9.729985961E+01  1.815741803E-06  0.00000E+00  9.000E+00
#rwgt            1           1   4.6711970001844315E-002           5      192772           0
</event>
<event>
      5   9999  3.79277E-02  8.27452E+00 -1.00000E+00  2.05773E-01
      21    -1     0     0   502   501  0.000000000E+00  0.000000000E+00  3.384989461E+02  3.384989461E+02  0.000000000E+00  0.00000E+00  9.000E+00
      21    -1     0     0   511   502  0.000000000E+00  0.000000000E+00 -3.434597192E+02  3.434597192E+02  0.000000000E+00  0.00000E+00  9.000E+00
      25     1     1     2     0     0 -1.644521584E+02  2.177828608E+02  1.051287295E+02  3.180423504E+02  1.250000000E+02  0.00000E+00  9.000E+00
      25     1     1     2     0     0  1.665240247E+02 -2.097719261E+02 -4.579687654E+01  2.990934063E+02  1.250000000E+02  0.00000E+00  9.000E+00
      21     1     1     2   511   501 -2.071866248E+00 -8.010934618E+00 -6.429262611E+01  6.482290857E+01  0.000000000E+00  0.00000E+00  9.000E+00
#rwgt            1           1   3.3783144948959287E-002           5      192839           0
</event>
<event>
      5   9999  3.79277E-02  2.94260E+01 -1.00000E+00  1.53625E-01
      21    -1     0     0   502   501  0.000000000E+00  0.000000000E+00  1.882639228E+03  1.882639228E+03  0.000000000E+00  0.00000E+00  9.000E+00
       2    -1     0     0   501     0  0.000000000E+00  0.000000000E+00 -4.283721234E+02  4.283721234E+02  0.000000000E+00  0.00000E+00  9.000E+00
      25     1     1     2     0     0 -7.037221723E+01  5.087638375E+01  1.046457347E+03  1.057468030E+03  1.250000000E+02  0.00000E+00  9.000E+00
      25     1     1     2     0     0  9.117555967E+01 -3.006514238E+01  8.226743082E+02  8.376365040E+02  1.250000000E+02  0.00000E+00  9.000E+00
       2     1     1     2   502     0 -2.080334244E+01 -2.081124137E+01 -4.148645498E+02  4.159068183E+02  1.078959322E-05  0.00000E+00  9.000E+00
#rwgt            1           1   1.6208792509846665E-002           5      193216           0
</event>
<event>
      5   9999  3.79277E-02  3.34888E+01 -1.00000E+00  1.49794E-01
      21    -1     0     0   502   501  0.000000000E+00  0.000000000E+00  1.325273932E+02  1.325273932E+02  0.000000000E+00  0.00000E+00  9.000E+00
      21    -1     0     0   501   511  0.000000000E+00  0.000000000E+00 -3.740660283E+02  3.740660283E+02  0.000000000E+00  0.00000E+00  9.000E+00
      25     1     1     2     0     0  1.177831372E+02 -6.693265176E+01 -1.606218153E+02  2.444937930E+02  1.250000000E+02  0.00000E+00  9.000E+00
      25     1     1     2     0     0 -1.299061706E+02  3.571516487E+01 -1.044988802E+01  1.840798368E+02  1.250000000E+02  0.00000E+00  9.000E+00
      21     1     1     2   502   511  1.212303333E+01  3.121748688E+01 -7.046693183E+01  7.801979176E+01  1.651812370E-06  0.00000E+00  9.000E+00
#rwgt            1           1   3.5007336272335619E-002           5      193335           0
</event>
<event>
      5   9999  3.79277E-02  3.03604E+02 -1.00000E+00  1.05424E-01
       3    -1     0     0   502     0  0.000000000E+00  0.000000000E+00  6.632048215E+02  6.632048215E+02  0.000000000E+00  0.00000E+00  9.000E+00
      21    -1     0     0   501   502  0.000000000E+00  0.000000000E+00 -1.084097663E+03  1.084097663E+03  0.000000000E+00  0.00000E+00  9.000E+00
      25     1     1     2     0     0 -2.447155184E+02  2.017305181E+02 -8.974936903E+02  9.600525043E+02  1.250000000E+02  0.00000E+00  9.000E+00
      25     1     1     2     0     0 -3.682304478E+01 -8.810085125E+01 -6.191669294E+01  1.690454776E+02  1.250000000E+02  0.00000E+00  9.000E+00
       3     1     1     2   501     0  2.815385632E+02 -1.136296668E+02  5.385175420E+02  6.182045024E+02  0.000000000E+00  0.00000E+00  9.000E+00
#rwgt            2          19   9.7039686934442031E-005           5      193451           0
</event>
<event>
      5   9999  3.79277E-02  6.43811E+01 -1.00000E+00  1.33088E-01
      21    -1     0     0   502   501  0.000000000E+00  0.000000000E+00  5.414578922E+01  5.414578922E+01  0.000000000E+00  0.00000E+00  9.000E+00
      -2    -1     0     0     0   502  0.000000000E+00  0.000000000E+00 -1.471587399E+03  1.471587399E+03  0.000000000E+00  0.00000E+00  9.000E+00
      25     1     1     2     0     0  3.459017484E+01 -8.369197364E+01 -9.527937543E+01  1.813945590E+02  1.250000000E+02  0.00000E+00  9.000E+00
      25     1     1     2     0     0  1.926918979E+01  1.189636733E+02 -8.287527445E+02  8.467465788E+02  1.250000000E+02  0.00000E+00  9.000E+00
      -2     1     1     2     0   501 -5.385936463E+01 -3.527169964E+01 -4.934094903E+02  4.975920508E+02  5.394796609E-06  0.00000E+00  9.000E+00
#rwgt            1           1   4.3186043613077901E-002           5      193605           0
</event>
<event>
      5   9999  3.79277E-02  4.64784E+01 -1.00000E+00  1.40910E-01
      21    -1     0     0   502   501  0.000000000E+00  0.000000000E+00  3.762085275E+02  3.762085275E+02  0.000000000E+00  0.00000E+00  9.000E+00
      21    -1     0     0   501   511  0.000000000E+00  0.000000000E+00 -1.489847458E+02  1.489847458E+02  0.000000000E+00  0.00000E+00  9.000E+00
      25     1     1     2     0     0  8.283516273E+01 -4.614802384E+01  2.411274185E+02  2.876781818E+02  1.250000000E+02  0.00000E+00  9.000E+00
      25     1     1     2     0     0 -3.640623070E+01  4.829141594E+01  5.914598153E+01  1.509328381E+02  1.250000000E+02  0.00000E+00  9.000E+00
      21     1     1     2   502   511 -4.642893202E+01 -2.143392098E+00 -7.304961844E+01  8.658225345E+01  1.651812370E-06  0.00000E+00  9.000E+00
#rwgt            1           1   3.1447164708501556E-002           5      193736           0
</event>
<event>
      5   9999  3.79277E-02  1.14466E+02 -1.00000E+00  1.21245E-01
      21    -1     0     0   502   512  0.000000000E+00  0.000000000E+00  9.337444991E+02  9.337444991E+02  0.000000000E+00  0.00000E+00  9.000E+00
      21    -1     0     0   501   502  0.000000000E+00  0.000000000E+00 -8.846190505E+01  8.846190505E+01  0.000000000E+00  0.00000E+00  9.000E+00
      25     1     1     2     0     0 -6.945736366E+01  7.953962990E+01  3.849399804E+01  1.681001665E+02  1.250000000E+02  0.00000E+00  9.000E+00
      25     1     1     2     0     0 -4.497382575E+01 -7.672612544E+01  3.322455424E+02  3.659530623E+02  1.250000000E+02  0.00000E+00  9.000E+00
      21     1     1     2   501   512  1.144311894E+02 -2.813504470E+00  4.745430536E+02  4.881531754E+02  5.394796609E-06  0.00000E+00  9.000E+00
#rwgt            1           1   3.1615860335448408E-002           5      193915           0
</event>
<event>
      5   9999 -3.79277E-02  1.77894E+01 -1.00000E+00  1.70679E-01
       2    -1     0     0   502     0  0.000000000E+00  0.000000000E+00  8.200335164E+02  8.200335164E+02  0.000000000E+00  0.00000E+00  9.000E+00
      21    -1     0     0   501   502  0.000000000E+00  0.000000000E+00 -7.635044830E+01  7.635044830E+01  0.000000000E+00  0.00000E+00  9.000E+00
      25     1     1     2     0     0 -9.153657214E+01  1.105943957E+02  9.505067878E+01  2.127667642E+02  1.250000000E+02  0.00000E+00  9.000E+00
      25     1     1     2     0     0  8.250485401E+01 -1.259204912E+02  5.595706799E+02  5.927962270E+02  1.250000000E+02  0.00000E+00  9.000E+00
       2     1     1     2   501     0  9.031718132E+00  1.532609546E+01  8.906170946E+01  9.082097349E+01  1.348699152E-06  0.00000E+00  9.000E+00
#rwgt            1           1  -1.1470732499315621E-002           5      194191           0
</event>
<event>
      5   9999  3.79277E-02  1.90311E+02 -1.00000E+00  1.12439E-01
      21    -1     0     0   502   501  0.000000000E+00  0.000000000E+00  8.155948786E+01  8.155948786E+01  0.000000000E+00  0.00000E+00  9.000E+00
      21    -1     0     0   511   502  0.000000000E+00  0.000000000E+00 -1.715871080E+03  1.715871080E+03  0.000000000E+00  0.00000E+00  9.000E+00
      25     1     1     2     0     0  1.936312933E+02 -1.243698139E+02 -6.238910762E+02  6.766284086E+02  1.250000000E+02  0.00000E+00  9.000E+00
      25     1     1     2     0     0 -4.005489129E+01  1.197483509E+01 -4.883023742E+01  1.405602471E+02  1.250000000E+02  0.00000E+00  9.000E+00
      21     1     1     2   511   501 -1.535764020E+02  1.123949788E+02 -9.615902787E+02  9.802419123E+02  0.000000000E+00  0.00000E+00  9.000E+00
#rwgt            1           1   3.2727090787091503E-002           5      194323           0
</event>
<event>
      5   9999  3.79277E-02  1.54394E+01 -1.00000E+00  1.76211E-01
      21    -1     0     0   502   501  0.000000000E+00  0.000000000E+00  9.064203845E+01  9.064203845E+01  0.000000000E+00  0.00000E+00  9.000E+00
      21    -1     0     0   512   502  0.000000000E+00  0.000000000E+00 -9.596117507E+02  9.596117507E+02  0.000000000E+00  0.00000E+00  9.000E+00
      25     1     1     2     0     0  1.263544384E+02  5.790001323E+01 -2.234783106E+02  2.913510098E+02  1.250000000E+02  0.00000E+00  9.000E+00
      25     1     1     2     0     0 -1.390760811E+02 -4.915167729E+01 -1.085401084E+02  2.217295624E+02  1.250000000E+02  0.00000E+00  9.000E+00
      21     1     1     2   512   501  1.272164270E+01 -8.748335941E+00 -5.369512934E+02  5.371732170E+02  1.078959322E-05  0.00000E+00  9.000E+00
#rwgt            1           1   3.3429941069756948E-002           5      194572           0
</event>
<event>
      5   9999  3.79277E-02  4.12481E+00 -1.00000E+00  2.60365E-01
      21    -1     0     0   502   501  0.000000000E+00  0.000000000E+00  8.248280560E+02  8.248280560E+02  0.000000000E+00  0.00000E+00  9.000E+00
      21    -1     0     0   501   511  0.000000000E+00  0.000000000E+00 -7.225417019E+02  7.225417019E+02  0.000000000E+00  0.00000E+00  9.000E+00
      25     1     1     2     0     0 -2.692019715E+02  5.595846145E+01  1.375644517E+02  3.318885796E+02  1.250000000E+02  0.00000E+00  9.000E+00
      25     1     1     2     0     0  2.720055179E+02 -5.898404955E+01  5.506551936E+02  6.295333685E+02  1.250000000E+02  0.00000E+00  9.000E+00
      21     1     1     2   502   511 -2.803546374E+00  3.025588097E+00 -5.859332912E+02  5.859478098E+02  7.629394531E-06  0.00000E+00  9.000E+00
#rwgt            1           1   3.5086502903928819E-002           5      194740           0
</event>
<event>
      5   9999  3.79277E-02  1.44650E+02 -1.00000E+00  1.17022E-01
      21    -1     0     0   502   501  0.000000000E+00  0.000000000E+00  4.248959477E+02  4.248959477E+02  0.000000000E+00  0.00000E+00  9.000E+00
      21    -1     0     0   501   512  0.000000000E+00  0.000000000E+00 -3.158679979E+02  3.158679979E+02  0.000000000E+00  0.00000E+00  9.000E+00
      25     1     1     2     0     0 -2.552286001E+02 -1.285165949E+02  2.580945201E+01  3.129684989E+02  1.250000000E+02  0.00000E+00  9.000E+00
      25     1     1     2     0     0  2.337573323E+02 -1.453065127E+01  9.664870355E+01  2.825236311E+02  1.250000000E+02  0.00000E+00  9.000E+00
      21     1     1     2   502   512  2.147126776E+01  1.430472462E+02 -1.343020575E+01  1.452718156E+02  2.407909617E-06  0.00000E+00  9.000E+00
#rwgt            1           1   2.8395654178272764E-002           5      195315           0
</event>
<event>
      5   9999  3.79277E-02  2.85725E+02 -1.00000E+00  1.06285E-01
      21    -1     0     0   502   501  0.000000000E+00  0.000000000E+00  2.186430038E+02  2.186430038E+02  0.000000000E+00  0.00000E+00  9.000E+00
      21    -1     0     0   501   511  0.000000000E+00  0.000000000E+00 -1.799512318E+03  1.799512318E+03  0.000000000E+00  0.00000E+00  9.000E+00
      25     1     1     2     0     0 -9.765910782E+01  1.206781751E+02 -1.826938764E+02  2.703748801E+02  1.250000000E+02  0.00000E+00  9.000E+00
      25     1     1     2     0     0  1.750390368E+02  1.543690463E+02  5.192766584E+01  2.697961255E+02  1.250000000E+02  0.00000E+00  9.000E+00
      21     1     1     2   502   511 -7.737992901E+01 -2.750472215E+02 -1.450103104E+03  1.477984316E+03  3.737624730E-05  0.00000E+00  9.000E+00
#rwgt            2          11   9.0812416544180778E-004           5      195576           0
</event>
<event>
      5   9999  3.79277E-02  6.40628E+01 -1.00000E+00  1.33200E-01
      21    -1     0     0   502   501  0.000000000E+00  0.000000000E+00  1.294896319E+03  1.294896319E+03  0.000000000E+00  0.00000E+00  9.000E+00
      21    -1     0     0   501   512  0.000000000E+00  0.000000000E+00 -2.015787303E+02  2.015787303E+02  0.000000000E+00  0.00000E+00  9.000E+00
      25     1     1     2     0     0  3.313174192E+02  2.515894103E+02  6.589548398E+02  7.892496085E+02  1.250000000E+02  0.00000E+00  9.000E+00
      25     1     1     2     0     0 -3.953548700E+02 -2.533898942E+02  4.182990852E+02  6.411794105E+02  1.250000000E+02  0.00000E+00  9.000E+00
      21     1     1     2   502   512  6.403745085E+01  1.800483876E+00  1.606366405E+01  6.604603059E+01  1.039242493E-06  0.00000E+00  9.000E+00
#rwgt            1           1  0.64222323999789455                5      195656           0
</event>
<event>
      5   9999  3.79277E-02  8.40074E+01 -1.00000E+00  1.27330E-01
      21    -1     0     0   511   501  0.000000000E+00  0.000000000E+00  4.346097757E+02  4.346097757E+02  0.000000000E+00  0.00000E+00  9.000E+00
      21    -1     0     0   501   502  0.000000000E+00  0.000000000E+00 -3.335418668E+02  3.335418668E+02  0.000000000E+00  0.00000E+00  9.000E+00
      25     1     1     2     0     0  1.367048140E+02  1.553895205E+02  8.572636168E+01  2.565309305E+02  1.250000000E+02  0.00000E+00  9.000E+00
      25     1     1     2     0     0 -6.044233946E+01 -1.906213972E+02 -1.815111323E+02  2.975921447E+02  1.250000000E+02  0.00000E+00  9.000E+00
      21     1     1     2   511   502 -7.626247456E+01  3.523187671E+01  1.968526795E+02  2.140285672E+02  0.000000000E+00  0.00000E+00  9.000E+00
#rwgt            1           1   3.8273984559844432E-002           5      195787           0
</event>
<event>
      5   9999  3.79277E-02  1.43769E+02 -1.00000E+00  1.17129E-01
      21    -1     0     0   502   501  0.000000000E+00  0.000000000E+00  3.194375145E+02  3.194375145E+02  0.000000000E+00  0.00000E+00  9.000E+00
       1    -1     0     0   501     0  0.000000000E+00  0.000000000E+00 -7.680651406E+02  7.680651406E+02  0.000000000E+00  0.00000E+00  9.000E+00
      25     1     1     2     0     0  2.054127837E+02  6.097770527E+00 -6.658796276E+00  2.406261292E+02  1.250000000E+02  0.00000E+00  9.000E+00
      25     1     1     2     0     0 -1.332303652E+02 -1.304329707E+02  1.284449591E+02  2.586236601E+02  1.250000000E+02  0.00000E+00  9.000E+00
       1     1     1     2   502     0 -7.218241845E+01  1.243352002E+02 -5.704137889E+02  5.882528658E+02  1.078959322E-05  0.00000E+00  9.000E+00
#rwgt            1           1   4.0728559948753670E-002           5      195894           0
</event>
<event>
      5   9999  3.79277E-02  1.92931E+02 -1.00000E+00  1.12220E-01
      21    -1     0     0   502   511  0.000000000E+00  0.000000000E+00  8.743420582E+02  8.743420582E+02  0.000000000E+00  0.00000E+00  9.000E+00
      21    -1     0     0   501   502  0.000000000E+00  0.000000000E+00 -1.825497861E+02  1.825497861E+02  0.000000000E+00  0.00000E+00  9.000E+00
      25     1     1     2     0     0  2.385786263E+01  1.830473007E+01 -7.767545903E+01  1.502089801E+02  1.250000000E+02  0.00000E+00  9.000E+00
      25     1     1     2     0     0 -2.255958756E+01 -2.112309044E+02  2.436172653E+02  3.465570688E+02  1.250000000E+02  0.00000E+00  9.000E+00
      21     1     1     2   501   511 -1.298275078E+00  1.929261743E+02  5.258504659E+02  5.601257954E+02  7.629394531E-06  0.00000E+00  9.000E+00
#rwgt            1           1   4.0708582226228120E-002           5      195963           0
</event>
<event>
      5   9999  4.01131E-02  1.63581E+01 -1.00000E+00  1.73909E-01
      21    -1     0     0   502   501  0.000000000E+00  0.000000000E+00  4.742600943E+02  4.742600943E+02  0.000000000E+00  0.00000E+00  9.000E+00
      21    -1     0     0   501   512  0.000000000E+00  0.000000000E+00 -2.291597514E+02  2.291597514E+02  0.000000000E+00  0.00000E+00  9.000E+00
      25     1     1     2     0     0  7.217109950E+00  2.905554878E+02  5.988556346E+01  3.220028864E+02  1.250000000E+02  0.00000E+00  9.000E+00
      25     1     1     2     0     0  8.014792955E+00 -2.845907666E+02  1.899773062E+02  3.643796348E+02  1.250000000E+02  0.00000E+00  9.000E+00
      21     1     1     2   502   512 -1.523190290E+01 -5.964721135E+00 -4.762526832E+00  1.703732450E+01  8.429369702E-08  0.00000E+00  9.000E+00
#rwgt            1           1  0.20265515606844153                5      196179           0
</event>
<event>
      5   9999  3.79277E-02  4.21297E+01 -1.00000E+00  1.43457E-01
      21    -1     0     0   502   501  0.000000000E+00  0.000000000E+00  2.552190734E+02  2.552190734E+02  0.000000000E+00  0.00000E+00  9.000E+00
      21    -1     0     0   511   502  0.000000000E+00  0.000000000E+00 -2.583438766E+02  2.583438766E+02  0.000000000E+00  0.00000E+00  9.000E+00
      25     1     1     2     0     0 -1.085361850E+02  1.235060997E+02 -1.708640378E+01  2.072457607E+02  1.250000000E+02  0.00000E+00  9.000E+00
      25     1     1     2     0     0  1.358230587E+02 -1.556049568E+02  5.488383248E+01  2.475844117E+02  1.250000000E+02  0.00000E+00  9.000E+00
      21     1     1     2   511   501 -2.728687370E+01  3.209885710E+01 -4.092223190E+01  5.873277762E+01  4.768371582E-07  0.00000E+00  9.000E+00
#rwgt            1           1   3.6141441630162516E-002           5      196381           0
</event>
<event>
      5   9999  3.79277E-02  2.24466E+01 -1.00000E+00  1.62337E-01
      21    -1     0     0   502   501  0.000000000E+00  0.000000000E+00  3.999991552E+02  3.999991552E+02  0.000000000E+00  0.00000E+00  9.000E+00
      21    -1     0     0   501   512  0.000000000E+00  0.000000000E+00 -2.242750253E+02  2.242750253E+02  0.000000000E+00  0.00000E+00  9.000E+00
      25     1     1     2     0     0 -6.321940238E+01  9.791423461E+00  3.529850919E+02  3.798895102E+02  1.250000000E+02  0.00000E+00  9.000E+00
      25     1     1     2     0     0  6.180761103E+01 -3.219360417E+01 -1.663083548E+02  2.194084725E+02  1.250000000E+02  0.00000E+00  9.000E+00
      21     1     1     2   502   512  1.411791352E+00  2.240218071E+01 -1.095260721E+01  2.497619787E+01  1.192092896E-07  0.00000E+00  9.000E+00
#rwgt            1           1   3.8046686628789989E-002           5      196506           0
</event>
<event>
      5   9999 -4.44723E-02  2.01374E+01 -1.00000E+00  1.66124E-01
      21    -1     0     0   502   501  0.000000000E+00  0.000000000E+00  2.459599247E+03  2.459599247E+03  0.000000000E+00  0.00000E+00  9.000E+00
      21    -1     0     0   511   502  0.000000000E+00  0.000000000E+00 -7.831096880E+01  7.831096880E+01  0.000000000E+00  0.00000E+00  9.000E+00
      25     1     1     2     0     0 -1.932775911E+02 -1.439244880E+02  1.114901065E+03  1.147475434E+03  1.250000000E+02  0.00000E+00  9.000E+00
      25     1     1     2     0     0  2.121645551E+02  1.509098778E+02  1.310497675E+03  1.341945135E+03  1.250000000E+02  0.00000E+00  9.000E+00
      21     1     1     2   511   501 -1.888696399E+01 -6.985389780E+00 -4.411046163E+01  4.848964740E+01  6.743495762E-07  0.00000E+00  9.000E+00
#rwgt            1           1 -0.62051066599707849                5      196625           0
</event>
<event>
      5   9999  3.79277E-02  1.39922E+01 -1.00000E+00  1.80277E-01
      21    -1     0     0   502   501  0.000000000E+00  0.000000000E+00  1.635745628E+03  1.635745628E+03  0.000000000E+00  0.00000E+00  9.000E+00
      21    -1     0     0   501   512  0.000000000E+00  0.000000000E+00 -3.563145942E+01  3.563145942E+01  0.000000000E+00  0.00000E+00  9.000E+00
      25     1     1     2     0     0  1.762878646E+01  8.058215629E+01  2.032302728E+02  2.524515831E+02  1.250000000E+02  0.00000E+00  9.000E+00
      25     1     1     2     0     0 -3.159348217E+01 -7.970565136E+01  1.396731610E+03  1.404932499E+03  1.250000000E+02  0.00000E+00  9.000E+00
      21     1     1     2   502   512  1.396469571E+01 -8.765049358E-01  1.522860042E-01  1.399300462E+01  2.686861593E-07  0.00000E+00  9.000E+00
#rwgt            1           1   4.0519539382629727E-002           5      196817           0
</event>
<event>
      5   9999 -3.79277E-02  5.50465E+01 -1.00000E+00  1.36734E-01
      21    -1     0     0   511   501  0.000000000E+00  0.000000000E+00  3.160569561E+02  3.160569561E+02  0.000000000E+00  0.00000E+00  9.000E+00
      21    -1     0     0   501   502  0.000000000E+00  0.000000000E+00 -3.196973302E+02  3.196973302E+02  0.000000000E+00  0.00000E+00  9.000E+00
      25     1     1     2     0     0 -7.356906359E+01 -1.206127723E+02 -5.980724320E+01  1.978932902E+02  1.250000000E+02  0.00000E+00  9.000E+00
      25     1     1     2     0     0  1.284387798E+02  1.162041732E+02 -1.257030926E+02  2.478430905E+02  1.250000000E+02  0.00000E+00  9.000E+00
      21     1     1     2   511   502 -5.486971619E+01  4.408599098E+00  1.818699616E+02  1.900179056E+02  3.814697266E-06  0.00000E+00  9.000E+00
#rwgt            1           1  -9.7128258243708757E-002           5      197067           0
</event>
<event>
      5   9999  3.79277E-02  2.96741E+01 -1.00000E+00  1.53370E-01
      21    -1     0     0   502   501  0.000000000E+00  0.000000000E+00  4.432278177E+02  4.432278177E+02  0.000000000E+00  0.00000E+00  9.000E+00
      21    -1     0     0   501   512  0.000000000E+00  0.000000000E+00 -2.938609718E+02  2.938609718E+02  0.000000000E+00  0.00000E+00  9.000E+00
      25     1     1     2     0     0 -1.553927535E+02  8.320533747E+01  1.844761390E+02  2.841240607E+02  1.250000000E+02  0.00000E+00  9.000E+00
      25     1     1     2     0     0  1.585237125E+02 -5.369683692E+01  1.552727472E+02  2.602839675E+02  1.250000000E+02  0.00000E+00  9.000E+00
      21     1     1     2   502   512 -3.130959011E+00 -2.950850055E+01 -1.903820402E+02  1.926807612E+02  2.697398305E-06  0.00000E+00  9.000E+00
#rwgt            1           1   3.2181583446587489E-002           5      197271           0
</event>
<event>
      5   9999  3.79277E-02  1.04819E+02 -1.00000E+00  1.22916E-01
      21    -1     0     0   511   501  0.000000000E+00  0.000000000E+00  3.364013343E+02  3.364013343E+02  0.000000000E+00  0.00000E+00  9.000E+00
      21    -1     0     0   501   502  0.000000000E+00  0.000000000E+00 -1.687025094E+02  1.687025094E+02  0.000000000E+00  0.00000E+00  9.000E+00
      25     1     1     2     0     0  7.723572149E+01  1.882329847E+01  1.659047105E+02  2.224163802E+02  1.250000000E+02  0.00000E+00  9.000E+00
      25     1     1     2     0     0 -9.688635500E+00 -9.897559653E+01 -4.779319144E+01  1.667310035E+02  1.250000000E+02  0.00000E+00  9.000E+00
      21     1     1     2   511   502 -6.754708600E+01  8.015229807E+01  4.958730593E+01  1.159564600E+02  9.536743164E-07  0.00000E+00  9.000E+00
#rwgt            1           1   4.0109682667020551E-002           5      197424           0
</event>
<event>
      5   9999  3.79277E-02  3.85783E+01 -1.00000E+00  1.45822E-01
      21    -1     0     0   512   501  0.000000000E+00  0.000000000E+00  8.394957965E+02  8.394957965E+02  0.000000000E+00  0.00000E+00  9.000E+00
      21    -1     0     0   501   502  0.000000000E+00  0.000000000E+00 -3.787454741E+01  3.787454741E+01  0.000000000E+00  0.00000E+00  9.000E+00
      25     1     1     2     0     0 -4.993654198E+01  3.336745890E+00  4.925505484E+02  5.106229869E+02  1.250000000E+02  0.00000E+00  9.000E+00
      25     1     1     2     0     0  4.822861602E+01 -4.187722252E+01  1.603859527E+02  2.131392854E+02  1.250000000E+02  0.00000E+00  9.000E+00
      21     1     1     2   512   502  1.707925958E+00  3.854047663E+01  1.486847480E+02  1.536080715E+02  1.907348633E-06  0.00000E+00  9.000E+00
#rwgt            1           1   4.3788245421711600E-002           5      197669           0
</event>
<event>
      5   9999  3.79277E-02  1.12660E+01 -1.00000E+00  1.89957E-01
      21    -1     0     0   502   501  0.000000000E+00  0.000000000E+00  1.848049292E+02  1.848049292E+02  0.000000000E+00  0.00000E+00  9.000E+00
      21    -1     0     0   501   511  0.000000000E+00  0.000000000E+00 -2.656948470E+02  2.656948470E+02  0.000000000E+00  0.00000E+00  9.000E+00
      25     1     1     2     0     0 -5.017153143E+01  1.338593817E+02 -1.245037953E+02  2.270720408E+02  1.250000000E+02  0.00000E+00  9.000E+00
      25     1     1     2     0     0  3.908668375E+01 -1.358717109E+02  6.471769090E+01  1.995050630E+02  1.250000000E+02  0.00000E+00  9.000E+00
      21     1     1     2   502   511  1.108484769E+01  2.012329157E+00 -2.110381333E+01  2.392267238E+01  2.384185791E-07  0.00000E+00  9.000E+00
#rwgt            1           1   4.4682471282979447E-002           5      197759           0
</event>
<event>
      5   9999  3.79277E-02  1.31761E+01 -1.00000E+00  1.82857E-01
      21    -1     0     0   512   501  0.000000000E+00  0.000000000E+00  3.785281627E+02  3.785281627E+02  0.000000000E+00  0.00000E+00  9.000E+00
      21    -1     0     0   501   502  0.000000000E+00  0.000000000E+00 -8.871779052E+01  8.871779052E+01  0.000000000E+00  0.00000E+00  9.000E+00
      25     1     1     2     0     0 -1.765108805E+01 -1.178157158E+02  1.430294075E+02  2.242197922E+02  1.250000000E+02  0.00000E+00  9.000E+00
      25     1     1     2     0     0  1.514485153E+01  1.048801362E+02  9.462220135E+01  1.892288839E+02  1.250000000E+02  0.00000E+00  9.000E+00
      21     1     1     2   512   502  2.506236523E+00  1.293557956E+01  5.215876333E+01  5.379727719E+01  6.743495762E-07  0.00000E+00  9.000E+00
#rwgt            1           1   3.5852510079865112E-002           5      198224           0
</event>
<event>
      5   9999  3.79277E-02  6.62444E+01 -1.00000E+00  1.32445E-01
      21    -1     0     0   502   501  0.000000000E+00  0.000000000E+00  3.609898094E+02  3.609898094E+02  0.000000000E+00  0.00000E+00  9.000E+00
      -2    -1     0     0     0   502  0.000000000E+00  0.000000000E+00 -3.726461430E+02  3.726461430E+02  0.000000000E+00  0.00000E+00  9.000E+00
      25     1     1     2     0     0 -9.978197182E+01 -9.273011990E+01  2.093457196E+02  2.792954481E+02  1.250000000E+02  0.00000E+00  9.000E+00
      25     1     1     2     0     0  1.417430023E+02  1.439901815E+02 -1.512859241E+01  2.380716812E+02  1.250000000E+02  0.00000E+00  9.000E+00
      -2     1     1     2     0   501 -4.196103044E+01 -5.126006161E+01 -2.058734607E+02  2.162688231E+02  0.000000000E+00  0.00000E+00  9.000E+00
#rwgt            1           1   4.3200181329473245E-002           5      198394           0
</event>
<event>
      5   9999  3.79277E-02  4.33603E+01 -1.00000E+00  1.42700E-01
      21    -1     0     0   502   511  0.000000000E+00  0.000000000E+00  1.152934561E+03  1.152934561E+03  0.000000000E+00  0.00000E+00  9.000E+00
      21    -1     0     0   501   502  0.000000000E+00  0.000000000E+00 -5.844050812E+01  5.844050812E+01  0.000000000E+00  0.00000E+00  9.000E+00
      25     1     1     2     0     0 -9.496958107E+01  3.986086920E+01  1.188369777E+02  2.008863796E+02  1.250000000E+02  0.00000E+00  9.000E+00
      25     1     1     2     0     0  1.352614416E+02 -5.588221258E+01  5.514712404E+02  5.840924655E+02  1.250000000E+02  0.00000E+00  9.000E+00
      21     1     1     2   501   511 -4.029186051E+01  1.602134338E+01  4.241858352E+02  4.263962245E+02  7.629394531E-06  0.00000E+00  9.000E+00
#rwgt            1           1   2.7545427831985134E-002           5      198560           0
</event>
<event>
      5   9999  3.79277E-02  5.04264E+01 -1.00000E+00  1.38865E-01
      21    -1     0     0   502   501  0.000000000E+00  0.000000000E+00  2.309743749E+02  2.309743749E+02  0.000000000E+00  0.00000E+00  9.000E+00
      -2    -1     0     0     0   502  0.000000000E+00  0.000000000E+00 -1.281335819E+03  1.281335819E+03  0.000000000E+00  0.00000E+00  9.000E+00
      25     1     1     2     0     0 -7.429208094E+01 -6.364790486E+01 -2.130727961E+02  2.656979216E+02  1.250000000E+02  0.00000E+00  9.000E+00
      25     1     1     2     0     0  1.238498776E+02  7.296715752E+01  1.595592584E+02  2.484897487E+02  1.250000000E+02  0.00000E+00  9.000E+00
      -2     1     1     2     0   501 -4.955779669E+01 -9.319252659E+00 -9.968479062E+02  9.981225235E+02  1.078959322E-05  0.00000E+00  9.000E+00
#rwgt            1           1   3.9648431752598176E-002           5      198717           0
</event>
<event>
      5   9999  3.79277E-02  3.49915E+01 -1.00000E+00  1.48538E-01
      21    -1     0     0   502   501  0.000000000E+00  0.000000000E+00  8.143402867E+02  8.143402867E+02  0.000000000E+00  0.00000E+00  9.000E+00
      21    -1     0     0   511   502  0.000000000E+00  0.000000000E+00 -8.376863617E+01  8.376863617E+01  0.000000000E+00  0.00000E+00  9.000E+00
      25     1     1     2     0     0 -3.731620113E+01  1.674662617E+02  5.385162545E+02  5.788455787E+02  1.250000000E+02  0.00000E+00  9.000E+00
      25     1     1     2     0     0  7.186978189E+01 -1.619477561E+02  1.459304740E+02  2.613676424E+02  1.250000000E+02  0.00000E+00  9.000E+00
      21     1     1     2   511   501 -3.455358076E+01 -5.518505646E+00  4.612492209E+01  5.789570178E+01  1.168007728E-06  0.00000E+00  9.000E+00
#rwgt            1           1   3.7728822878536003E-002           5      198894           0
</event>
<event>
      5   9999  3.79277E-02  1.19275E+01 -1.00000E+00  1.87305E-01
      21    -1     0     0   512   501  0.000000000E+00  0.000000000E+00  4.497448659E+02  4.497448659E+02  0.000000000E+00  0.00000E+00  9.000E+00
      21    -1     0     0   501   502  0.000000000E+00  0.000000000E+00 -3.891385097E+02  3.891385097E+02  0.000000000E+00  0.00000E+00  9.000E+00
      25     1     1     2     0     0  1.698245729E+02 -7.298604990E+01 -2.638320735E+02  3.455426342E+02  1.250000000E+02  0.00000E+00  9.000E+00
      25     1     1     2     0     0 -1.816630910E+02  7.153151784E+01  7.505597949E+01  2.436732171E+02  1.250000000E+02  0.00000E+00  9.000E+00
      21     1     1     2   512   502  1.183851803E+01  1.454532058E+00  2.493824503E+02  2.496675243E+02  0.000000000E+00  0.00000E+00  9.000E+00
#rwgt            1           1   4.5006371988481959E-002           5      199060           0
</event>
<event>
      5   9999  3.79277E-02  3.33077E+01 -1.00000E+00  1.49950E-01
       1    -1     0     0   502     0  0.000000000E+00  0.000000000E+00  2.683563858E+02  2.683563858E+02  0.000000000E+00  0.00000E+00  9.000E+00
      21    -1     0     0   501   502  0.000000000E+00  0.000000000E+00 -3.531243016E+02  3.531243016E+02  0.000000000E+00  0.00000E+00  9.000E+00
      25     1     1     2     0     0 -9.841481573E+01 -2.152327013E+02 -1.351693382E+02  2.998438621E+02  1.250000000E+02  0.00000E+00  9.000E+00
      25     1     1     2     0     0  1.213289279E+02  1.910594907E+02 -3.150420805E+00  2.585717751E+02  1.250000000E+02  0.00000E+00  9.000E+00
       1     1     1     2   501     0 -2.291411216E+01  2.417321061E+01  5.355184322E+01  6.306505023E+01  6.743495762E-07  0.00000E+00  9.000E+00
#rwgt            1           1   3.4615217965306221E-002           5      199298           0
</event>
<event>
      5   9999  3.79277E-02  2.67093E+01 -1.00000E+00  1.56629E-01
      21    -1     0     0   502   511  0.000000000E+00  0.000000000E+00  6.683880406E+02  6.683880406E+02  0.000000000E+00  0.00000E+00  9.000E+00
      21    -1     0     0   501   502  0.000000000E+00  0.000000000E+00 -7.324603910E+01  7.324603910E+01  0.000000000E+00  0.00000E+00  9.000E+00
      25     1     1     2     0     0  9.790006720E+01 -1.188796585E+02  2.145459591E+02  2.921844707E+02  1.250000000E+02  0.00000E+00  9.000E+00
      25     1     1     2     0     0 -1.046965358E+02  9.304956921E+01  2.318617113E+02  2.983361193E+02  1.250000000E+02  0.00000E+00  9.000E+00
      21     1     1     2   501   511  6.796468639E+00  2.583008926E+01  1.487343311E+02  1.511134897E+02  0.000000000E+00  0.00000E+00  9.000E+00
#rwgt            1           1   4.6359900117288765E-002           5      199548           0
</event>
<event>
      5   9999  3.79277E-02  1.01796E+02 -1.00000E+00  1.23481E-01
      21    -1     0     0   502   501  0.000000000E+00  0.000000000E+00  4.387784878E+02  4.387784878E+02  0.000000000E+00  0.00000E+00  9.000E+00
       3    -1     0     0   501     0  0.000000000E+00  0.000000000E+00 -2.880866214E+02  2.880866214E+02  0.000000000E+00  0.00000E+00  9.000E+00
      25     1     1     2     0     0 -1.265646965E+02 -5.804311853E+01 -3.147327192E+00  1.871430781E+02  1.250000000E+02  0.00000E+00  9.000E+00
      25     1     1     2     0     0  2.194374438E+02  1.636539894E+01  2.801279815E+02  3.775146409E+02  1.250000000E+02  0.00000E+00  9.000E+00
       3     1     1     2   502     0 -9.287274731E+01  4.167771959E+01 -1.262887879E+02  1.622073903E+02  1.348699152E-06  0.00000E+00  9.000E+00
#rwgt            1           1   3.9209104326729798E-002           5      199650           0
</event>
<event>
      5   9999  3.79277E-02  1.03567E+02 -1.00000E+00  1.23147E-01
       1    -1     0     0   502     0  0.000000000E+00  0.000000000E+00  1.014863249E+03  1.014863249E+03  0.000000000E+00  0.00000E+00  9.000E+00
      21    -1     0     0   501   502  0.000000000E+00  0.000000000E+00 -2.534373776E+02  2.534373776E+02  0.000000000E+00  0.00000E+00  9.000E+00
      25     1     1     2     0     0  7.753096659E+00  1.697544748E+01  7.110048125E+02  7.221503442E+02  1.250000000E+02  0.00000E+00  9.000E+00
      25     1     1     2     0     0 -1.939372604E+01 -1.198863052E+02 -2.058644782E+02  2.697295426E+02  1.250000000E+02  0.00000E+00  9.000E+00
       1     1     1     2   501     0  1.164062938E+01  1.029108577E+02  2.562855372E+02  2.764207399E+02  0.000000000E+00  0.00000E+00  9.000E+00
#rwgt            1           1   4.0908329787688900E-002           5      199731           0
</event>
<event>
      5   9999  3.79277E-02  4.83222E+01 -1.00000E+00  1.39927E-01
      -1    -1     0     0     0   501  0.000000000E+00  0.000000000E+00  5.688944089E+02  5.688944089E+02  0.000000000E+00  0.00000E+00  9.000E+00
      21    -1     0     0   501   502  0.000000000E+00  0.000000000E+00 -1.539462059E+02  1.539462059E+02  0.000000000E+00  0.00000E+00  9.000E+00
      25     1     1     2     0     0 -6.773347753E+01 -1.041432113E+02 -2.889218195E+01  1.785872073E+02  1.250000000E+02  0.00000E+00  9.000E+00
      25     1     1     2     0     0  7.660778917E+01  1.516435321E+02  1.838302884E+02  2.797911527E+02  1.250000000E+02  0.00000E+00  9.000E+00
      -1     1     1     2     0   502 -8.874311641E+00 -4.750032073E+01  2.600100966E+02  2.644622548E+02  3.814697266E-06  0.00000E+00  9.000E+00
#rwgt            1           1   3.7303212604023021E-002           5      199875           0
</event>
<event>
      5   9999  3.79277E-02  1.22769E+01 -1.00000E+00  1.85992E-01
      21    -1     0     0   511   501  0.000000000E+00  0.000000000E+00  1.738587060E+03  1.738587060E+03  0.000000000E+00  0.00000E+00  9.000E+00
      21    -1     0     0   501   502  0.000000000E+00  0.000000000E+00 -3.072243515E+01  3.072243515E+01  0.000000000E+00  0.00000E+00  9.000E+00
      25     1     1     2     0     0  5.364767952E+01 -2.858660053E+01  1.445003200E+03  1.451673005E+03  1.250000000E+02  0.00000E+00  9.000E+00
      25     1     1     2     0     0 -4.156290536E+01  2.642304941E+01  1.395423818E+02  1.937078444E+02  1.250000000E+02  0.00000E+00  9.000E+00
      21     1     1     2   511   502 -1.208477415E+01  2.163551117E+00  1.233190431E+02  1.239286452E+02  0.000000000E+00  0.00000E+00  9.000E+00
#rwgt            1           1   4.7880011180884419E-002           5      199976           0
</event>
<event>
      5   9999  3.79277E-02  2.91651E+01 -1.00000E+00  1.53896E-01
      21    -1     0     0   502   512  0.000000000E+00  0.000000000E+00  1.996689813E+02  1.996689813E+02  0.000000000E+00  0.00000E+00  9.000E+00
      21    -1     0     0   501   502  0.000000000E+00  0.000000000E+00 -1.644795069E+02  1.644795069E+02  0.000000000E+00  0.00000E+00  9.000E+00
      25     1     1     2     0     0  6.478903665E+01  1.811328656E+01 -4.596220568E+01  1.492086954E+02  1.250000000E+02  0.00000E+00  9.000E+00
      25     1     1     2     0     0 -4.547609922E+01 -3.996764305E+01  1.142502954E+01  1.393593176E+02  1.250000000E+02  0.00000E+00  9.000E+00
      21     1     1     2   501   512 -1.931293743E+01  2.185435649E+01  6.972665054E+01  7.558047529E+01  9.536743164E-07  0.00000E+00  9.000E+00
#rwgt            1           1   4.6486874327834694E-002           5      200362           0
</event>
<event>
      5   9999  3.79277E-02  3.24170E+01 -1.00000E+00  1.50739E-01
      21    -1     0     0   511   501  0.000000000E+00  0.000000000E+00  1.283021690E+02  1.283021690E+02  0.000000000E+00  0.00000E+00  9.000E+00
      21    -1     0     0   501   502  0.000000000E+00  0.000000000E+00 -6.169871124E+02  6.169871124E+02  0.000000000E+00  0.00000E+00  9.000E+00
      25     1     1     2     0     0 -1.348978249E+02  4.308505261E+01 -2.312006297E+02  2.985506256E+02  1.250000000E+02  0.00000E+00  9.000E+00
      25     1     1     2     0     0  1.482853750E+02 -7.260847209E+01 -3.171858361E+02  3.788039034E+02  1.250000000E+02  0.00000E+00  9.000E+00
      21     1     1     2   511   502 -1.338755012E+01  2.952341947E+01  5.970152235E+01  6.793475228E+01  1.348699152E-06  0.00000E+00  9.000E+00
#rwgt            1           1   3.4705938868454134E-002           5      200503           0
</event>
<event>
      5   9999  3.79277E-02  3.40079E+02 -1.00000E+00  1.03852E-01
      21    -1     0     0   502   501  0.000000000E+00  0.000000000E+00  6.361315757E+02  6.361315757E+02  0.000000000E+00  0.00000E+00  9.000E+00
       2    -1     0     0   501     0  0.000000000E+00  0.000000000E+00 -4.425449685E+02  4.425449685E+02  0.000000000E+00  0.00000E+00  9.000E+00
      25     1     1     2     0     0 -2.413737191E+02  2.154738887E+02  3.838514935E+02  5.173560071E+02  1.250000000E+02  0.00000E+00  9.000E+00
      25     1     1     2     0     0  3.001254115E+01  5.094688492E+01  4.767484281E+01  1.462676599E+02  1.250000000E+02  0.00000E+00  9.000E+00
       2     1     1     2   502     0  2.113611780E+02 -2.664207736E+02 -2.379397291E+02  4.150528772E+02  5.394796609E-06  0.00000E+00  9.000E+00
#rwgt            2          13   1.1450601298824261E-004           5      200707           0
</event>
<event>
      5   9999  3.79277E-02  2.22526E+02 -1.00000E+00  1.09986E-01
       3    -1     0     0   502     0  0.000000000E+00  0.000000000E+00  1.514525903E+03  1.514525903E+03  0.000000000E+00  0.00000E+00  9.000E+00
      21    -1     0     0   501   502  0.000000000E+00  0.000000000E+00 -4.566782748E+02  4.566782748E+02  0.000000000E+00  0.00000E+00  9.000E+00
      25     1     1     2     0     0 -2.085910300E+02 -1.747393443E+02 -1.477314903E+02  3.339066478E+02  1.250000000E+02  0.00000E+00  9.000E+00
      25     1     1     2     0     0  3.018530659E+02 -2.730022292E+01 -7.599937453E+01  3.365434303E+02  1.250000000E+02  0.00000E+00  9.000E+00
       3     1     1     2   501     0 -9.326203592E+01  2.020395672E+02  1.281578493E+03  1.300754100E+03  1.525878906E-05  0.00000E+00  9.000E+00
#rwgt            1           1   3.2930978965640616E-002           5      200816           0
</event>
<event>
      5   9999  3.79277E-02  7.83413E+01 -1.00000E+00  1.28791E-01
       2    -1     0     0   502     0  0.000000000E+00  0.000000000E+00  1.963666530E+03  1.963666530E+03  0.000000000E+00  0.00000E+00  9.000E+00
      21    -1     0     0   501   502  0.000000000E+00  0.000000000E+00 -1.398831855E+02  1.398831855E+02  0.000000000E+00  0.00000E+00  9.000E+00
      25     1     1     2     0     0 -3.541444734E+01 -1.199287199E+02 -1.890610994E+01  1.778187896E+02  1.250000000E+02  0.00000E+00  9.000E+00
      25     1     1     2     0     0 -3.608092832E+01  1.519564517E+02  2.059280014E+02  2.870956955E+02  1.250000000E+02  0.00000E+00  9.000E+00
       2     1     1     2   501     0  7.149537566E+01 -3.202773175E+01  1.636761453E+03  1.638635231E+03  0.000000000E+00  0.00000E+00  9.000E+00
#rwgt            1           1   3.2076115553031213E-002           5      200900           0
</event>
<event>
      5   9999  3.79277E-02  4.02212E+01 -1.00000E+00  1.44692E-01
      21    -1     0     0   502   501  0.000000000E+00  0.000000000E+00  6.405168610E+02  6.405168610E+02  0.000000000E+00  0.00000E+00  9.000E+00
      21    -1     0     0   511   502  0.000000000E+00  0.000000000E+00 -1.098442424E+02  1.098442424E+02  0.000000000E+00  0.00000E+00  9.000E+00
      25     1     1     2     0     0  1.681443700E+01  8.504114437E+01  4.032106545E+02  4.309507552E+02  1.250000000E+02  0.00000E+00  9.000E+00
      25     1     1     2     0     0  7.134229347E+00 -1.173553661E+02  1.829771136E+02  2.508561406E+02  1.250000000E+02  0.00000E+00  9.000E+00
      21     1     1     2   511   501 -2.394866634E+01  3.231422172E+01 -5.551514952E+01  6.855420754E+01  1.651812370E-06  0.00000E+00  9.000E+00
#rwgt            1           1   2.1931268615323601E-002           5      200951           0
</event>
<event>
      5   9999  3.79277E-02  1.95286E+01 -1.00000E+00  1.67228E-01
      21    -1     0     0   512   501  0.000000000E+00  0.000000000E+00  6.661333662E+02  6.661333662E+02  0.000000000E+00  0.00000E+00  9.000E+00
      21    -1     0     0   501   502  0.000000000E+00  0.000000000E+00 -8.062595022E+01  8.062595022E+01  0.000000000E+00  0.00000E+00  9.000E+00
      25     1     1     2     0     0 -4.015398628E+01  7.097837324E+01  4.822772057E+01  1.568476494E+02  1.250000000E+02  0.00000E+00  9.000E+00
      25     1     1     2     0     0  2.141613375E+01 -6.547758793E+01  1.693890940E+02  2.215031162E+02  1.250000000E+02  0.00000E+00  9.000E+00
      21     1     1     2   512   502  1.873785254E+01 -5.500785312E+00  3.678906014E+02  3.684085509E+02  5.394796609E-06  0.00000E+00  9.000E+00
#rwgt            1           1   2.9565714793963801E-002           5      201090           0
</event>
<event>
      5   9999 -3.79277E-02  4.42057E+01 -1.00000E+00  1.42198E-01
      21    -1     0     0   502   501  0.000000000E+00  0.000000000E+00  1.290909568E+02  1.290909568E+02  0.000000000E+00  0.00000E+00  9.000E+00
      21    -1     0     0   501   511  0.000000000E+00  0.000000000E+00 -5.427811984E+02  5.427811984E+02  0.000000000E+00  0.00000E+00  9.000E+00
      25     1     1     2     0     0 -1.091254393E+02 -2.287015496E+01 -1.895029321E+02  2.529184982E+02  1.250000000E+02  0.00000E+00  9.000E+00
      25     1     1     2     0     0  9.529953903E+01  6.485807559E+01  1.962282845E+01  1.711684185E+02  1.250000000E+02  0.00000E+00  9.000E+00
      21     1     1     2   502   511  1.382590023E+01 -4.198792063E+01 -2.438101380E+02  2.477852384E+02  3.814697266E-06  0.00000E+00  9.000E+00
#rwgt            1           1  -3.9279821748403568E-002           5      201220           0
</event>
<event>
      5   9999  3.79277E-02  6.42188E+01 -1.00000E+00  1.33145E-01
      21    -1     0     0   502   501  0.000000000E+00  0.000000000E+00  1.709466363E+03  1.709466363E+03  0.000000000E+00  0.00000E+00  9.000E+00
      21    -1     0     0   501   512  0.000000000E+00  0.000000000E+00 -2.393707612E+02  2.393707612E+02  0.000000000E+00  0.00000E+00  9.000E+00
      25     1     1     2     0     0 -1.441642054E+02 -1.995396444E+02  3.113646392E+02  4.161397919E+02  1.250000000E+02  0.00000E+00  9.000E+00
      25     1     1     2     0     0  1.291468124E+02  1.371013769E+02  1.330369543E+03  1.349438331E+03  1.250000000E+02  0.00000E+00  9.000E+00
      21     1     1     2   502   512  1.501739300E+01  6.243826756E+01 -1.716385807E+02  1.832590017E+02  4.264961200E-06  0.00000E+00  9.000E+00
#rwgt            1           1   1.5124882716195321E-002           5      201370           0
</event>
<event>
      5   9999  3.79277E-02  2.09611E+01 -1.00000E+00  1.64705E-01
      21    -1     0     0   502   501  0.000000000E+00  0.000000000E+00  1.823523581E+03  1.823523581E+03  0.000000000E+00  0.00000E+00  9.000E+00
      21    -1     0     0   511   502  0.000000000E+00  0.000000000E+00 -5.361829447E+01  5.361829447E+01  0.000000000E+00  0.00000E+00  9.000E+00
      25     1     1     2     0     0 -1.575105748E+02 -7.729300308E+01  4.835252299E+02  5.293443468E+02  1.250000000E+02  0.00000E+00  9.000E+00
      25     1     1     2     0     0  1.415120181E+02  9.083608508E+01  1.303808579E+03  1.320537260E+03  1.250000000E+02  0.00000E+00  9.000E+00
      21     1     1     2   511   501  1.599855670E+01 -1.354308200E+01 -1.742852177E+01  2.726026885E+01  1.066240300E-06  0.00000E+00  9.000E+00
#rwgt            1           1   2.8122938829855580E-002           5      201501           0
</event>
<event>
      5   9999  3.79277E-02  5.87435E+01 -1.00000E+00  1.35196E-01
      21    -1     0     0   512   501  0.000000000E+00  0.000000000E+00  2.401698233E+02  2.401698233E+02  0.000000000E+00  0.00000E+00  9.000E+00
      21    -1     0     0   501   502  0.000000000E+00  0.000000000E+00 -3.147032907E+02  3.147032907E+02  0.000000000E+00  0.00000E+00  9.000E+00
      25     1     1     2     0     0  6.185161260E+01 -1.200567285E+02 -2.114564039E+02  2.803177675E+02  1.250000000E+02  0.00000E+00  9.000E+00
      25     1     1     2     0     0 -8.764698176E+01  6.727991551E+01  5.897556618E+01  1.769511171E+02  1.250000000E+02  0.00000E+00  9.000E+00
      21     1     1     2   512   502  2.579536916E+01  5.277681295E+01  7.794737026E+01  9.760422934E+01  1.651812370E-06  0.00000E+00  9.000E+00
#rwgt            1           1  0.17945547478561830                5      201685           0
</event>
<event>
      5   9999  3.79277E-02  8.27261E+01 -1.00000E+00  1.27649E-01
      21    -1     0     0   502   501  0.000000000E+00  0.000000000E+00  4.607708118E+02  4.607708118E+02  0.000000000E+00  0.00000E+00  9.000E+00
      21    -1     0     0   511   502  0.000000000E+00  0.000000000E+00 -1.181146410E+02  1.181146410E+02  0.000000000E+00  0.00000E+00  9.000E+00
      25     1     1     2     0     0  7.264598470E+01  6.732583660E+00  2.498652016E+02  2.887566203E+02  1.250000000E+02  0.00000E+00  9.000E+00
      25     1     1     2     0     0 -5.005110476E+01  7.284806431E+01  1.286459420E+02  1.999668271E+02  1.250000000E+02  0.00000E+00  9.000E+00
      21     1     1     2   511   501 -2.259487993E+01 -7.958064797E+01 -3.585497285E+01  9.016200535E+01  6.743495762E-07  0.00000E+00  9.000E+00
#rwgt            1           1   6.6403238190846939E-002           5      201745           0
</event>
<event>
      5   9999  3.79277E-02  1.87878E+02 -1.00000E+00  1.12646E-01
      21    -1     0     0   502   512  0.000000000E+00  0.000000000E+00  7.692856206E+02  7.692856206E+02  0.000000000E+00  0.00000E+00  9.000E+00
      21    -1     0     0   501   502  0.000000000E+00  0.000000000E+00 -1.638970656E+02  1.638970656E+02  0.000000000E+00  0.00000E+00  9.000E+00
      25     1     1     2     0     0  5.445736419E+01  3.187157570E+01 -6.065761041E+01  1.525966826E+02  1.250000000E+02  0.00000E+00  9.000E+00
      25     1     1     2     0     0  1.307860150E+02 -5.153319714E-01  4.930437847E+02  5.251879863E+02  1.250000000E+02  0.00000E+00  9.000E+00
      21     1     1     2   501   512 -1.852433791E+02 -3.135624373E+01  1.730023806E+02  2.553980173E+02  2.697398305E-06  0.00000E+00  9.000E+00
#rwgt            1           1   4.7225347470303519E-002           5      202124           0
</event>
<event>
      5   9999  3.79277E-02  2.61358E+01 -1.00000E+00  1.57319E-01
       2    -1     0     0   502     0  0.000000000E+00  0.000000000E+00  6.060995524E+02  6.060995524E+02  0.000000000E+00  0.00000E+00  9.000E+00
      21    -1     0     0   501   502  0.000000000E+00  0.000000000E+00 -1.078340398E+02  1.078340398E+02  0.000000000E+00  0.00000E+00  9.000E+00
      25     1     1     2     0     0 -1.310993081E+02 -1.268066625E+02  2.634199173E+02  3.439215187E+02  1.250000000E+02  0.00000E+00  9.000E+00
      25     1     1     2     0     0  1.421581225E+02  1.504874756E+02  1.580597528E+02  2.889001515E+02  1.250000000E+02  0.00000E+00  9.000E+00
       2     1     1     2   501     0 -1.105881437E+01 -2.368081310E+01  7.678584248E+01  8.111192199E+01  9.536743164E-07  0.00000E+00  9.000E+00
#rwgt            1           1   8.1111505238615645E-003           5      202219           0
</event>
<event>
      5   9999 -3.79277E-02  4.60935E+01 -1.00000E+00  1.41122E-01
      21    -1     0     0   511   501  0.000000000E+00  0.000000000E+00  5.996954123E+02  5.996954123E+02  0.000000000E+00  0.00000E+00  9.000E+00
      21    -1     0     0   501   502  0.000000000E+00  0.000000000E+00 -2.641296149E+02  2.641296149E+02  0.000000000E+00  0.00000E+00  9.000E+00
      25     1     1     2     0     0 -1.589009488E+02 -1.733681218E+02  3.853220004E+02  4.684058723E+02  1.250000000E+02  0.00000E+00  9.000E+00
      25     1     1     2     0     0  1.206976240E+02  1.475783083E+02 -1.582658024E+02  2.775253821E+02  1.250000000E+02  0.00000E+00  9.000E+00
      21     1     1     2   511   502  3.820332478E+01  2.578981358E+01  1.085095994E+02  1.178937728E+02  1.348699152E-06  0.00000E+00  9.000E+00
#rwgt            1           1  -4.3772794951413604E-002           5      202381           0
</event>
<event>
      5   9999  3.79277E-02  1.73429E+01 -1.00000E+00  1.71644E-01
      21    -1     0     0   502   512  0.000000000E+00  0.000000000E+00  1.676766399E+02  1.676766399E+02  0.000000000E+00  0.00000E+00  9.000E+00
      21    -1     0     0   501   502  0.000000000E+00  0.000000000E+00 -3.872827256E+02  3.872827256E+02  0.000000000E+00  0.00000E+00  9.000E+00
      25     1     1     2     0     0  1.736745968E+02 -6.319078408E+01 -1.335607814E+01  2.235158285E+02  1.250000000E+02  0.00000E+00  9.000E+00
      25     1     1     2     0     0 -1.868591686E+02  5.192382202E+01 -2.118308833E+02  3.132247680E+02  1.250000000E+02  0.00000E+00  9.000E+00
      21     1     1     2   501   512  1.318457187E+01  1.126696206E+01  5.580875667E+00  1.821876897E+01  4.539354507E-07  0.00000E+00  9.000E+00
#rwgt            1           1   3.3524282971392406E-002           5      202473           0
</event>
<event>
      5   9999  3.79277E-02  2.73744E+01 -1.00000E+00  1.55855E-01
       2    -1     0     0   502     0  0.000000000E+00  0.000000000E+00  1.438358701E+03  1.438358701E+03  0.000000000E+00  0.00000E+00  9.000E+00
      21    -1     0     0   501   502  0.000000000E+00  0.000000000E+00 -6.613634887E+01  6.613634887E+01  0.000000000E+00  0.00000E+00  9.000E+00
      25     1     1     2     0     0 -1.394247039E+02 -1.654809723E+01  1.322710964E+02  2.298558908E+02  1.250000000E+02  0.00000E+00  9.000E+00
      25     1     1     2     0     0  1.297459763E+02  4.215436515E+01  4.835365082E+02  5.177292378E+02  1.250000000E+02  0.00000E+00  9.000E+00
       2     1     1     2   501     0  9.678727581E+00 -2.560626792E+01  7.564147479E+02  7.569099217E+02  0.000000000E+00  0.00000E+00  9.000E+00
#rwgt            1           1   3.3970592491643907E-002           5      202711           0
</event>
<event>
      5   9999 -3.79277E-02  9.19051E+01 -1.00000E+00  1.25500E-01
      -3    -1     0     0     0   501  0.000000000E+00  0.000000000E+00  6.455323133E+02  6.455323133E+02  0.000000000E+00  0.00000E+00  9.000E+00
      21    -1     0     0   501   502  0.000000000E+00  0.000000000E+00 -1.121812256E+02  1.121812256E+02  0.000000000E+00  0.00000E+00  9.000E+00
      25     1     1     2     0     0 -1.003547225E+02 -1.337613819E+02  3.571877201E+02  4.137284678E+02  1.250000000E+02  0.00000E+00  9.000E+00
      25     1     1     2     0     0  1.297820591E+02  4.669486537E+01  5.939762645E+01  1.953890257E+02  1.250000000E+02  0.00000E+00  9.000E+00
      -3     1     1     2     0   502 -2.942733657E+01  8.706651657E+01  1.167657411E+02  1.485960455E+02  1.348699152E-06  0.00000E+00  9.000E+00
#rwgt            1           1 -0.27391785879897396                5      202869           0
</event>
<event>
      5   9999  3.79277E-02  1.58734E+01 -1.00000E+00  1.75099E-01
      21    -1     0     0   502   501  0.000000000E+00  0.000000000E+00  4.519292582E+02  4.519292582E+02  0.000000000E+00  0.00000E+00  9.000E+00
      21    -1     0     0   511   502  0.000000000E+00  0.000000000E+00 -2.551399758E+02  2.551399758E+02  0.000000000E+00  0.00000E+00  9.000E+00
      25     1     1     2     0     0  9.609647781E+01 -1.424297078E+02  6.226563786E+01  2.214108497E+02  1.250000000E+02  0.00000E+00  9.000E+00
      25     1     1     2     0     0 -1.067352758E+02  1.306491838E+02  2.740460335E+02  3.452359437E+02  1.250000000E+02  0.00000E+00  9.000E+00
      21     1     1     2   511   501  1.063879797E+01  1.178052406E+01 -1.395223890E+02  1.404224405E+02  1.907348633E-06  0.00000E+00  9.000E+00
#rwgt            1           1   4.1436213715794597E-002           5      203036           0
</event>
<event>
      5   9999  3.79277E-02  9.54511E+01 -1.00000E+00  1.24744E-01
      21    -1     0     0   502   501  0.000000000E+00  0.000000000E+00  1.077799439E+02  1.077799439E+02  0.000000000E+00  0.00000E+00  9.000E+00
      21    -1     0     0   501   512  0.000000000E+00  0.000000000E+00 -6.113557104E+02  6.113557104E+02  0.000000000E+00  0.00000E+00  9.000E+00
      25     1     1     2     0     0  7.865176312E+01  1.539762296E+02 -2.998024848E+02  3.679691686E+02  1.250000000E+02  0.00000E+00  9.000E+00
      25     1     1     2     0     0 -8.130969417E+01 -5.856210366E+01 -4.584852391E+01  1.666369512E+02  1.250000000E+02  0.00000E+00  9.000E+00
      21     1     1     2   502   512  2.657931054E+00 -9.541412591E+01 -1.579247577E+02  1.845295345E+02  2.697398305E-06  0.00000E+00  9.000E+00
#rwgt            1           1   3.3665444330468967E-002           5      203291           0
</event>
<event>
      5   9999  3.79277E-02  3.05522E+01 -1.00000E+00  1.52492E-01
      21    -1     0     0   502   501  0.000000000E+00  0.000000000E+00  3.458648440E+02  3.458648440E+02  0.000000000E+00  0.00000E+00  9.000E+00
      21    -1     0     0   511   502  0.000000000E+00  0.000000000E+00 -1.624292510E+02  1.624292510E+02  0.000000000E+00  0.00000E+00  9.000E+00
      25     1     1     2     0     0  3.175911140E+01 -1.012531594E+01 -5.564610443E+01  1.408284493E+02  1.250000000E+02  0.00000E+00  9.000E+00
      25     1     1     2     0     0 -3.700307337E+01 -1.997351494E+01  2.840078707E+02  3.131351774E+02  1.250000000E+02  0.00000E+00  9.000E+00
      21     1     1     2   511   501  5.243961965E+00  3.009883088E+01 -4.492617323E+01  5.433046842E+01  1.261592536E-06  0.00000E+00  9.000E+00
#rwgt            1           1   4.0113119731305269E-002           5      203406           0
</event>
<event>
      5   9999  3.79277E-02  5.38315E+01 -1.00000E+00  1.37270E-01
      21    -1     0     0   502   512  0.000000000E+00  0.000000000E+00  1.205210132E+02  1.205210132E+02  0.000000000E+00  0.00000E+00  9.000E+00
      21    -1     0     0   501   502  0.000000000E+00  0.000000000E+00 -4.218850665E+02  4.218850665E+02  0.000000000E+00  0.00000E+00  9.000E+00
      25     1     1     2     0     0 -1.534124592E+02 -2.008114602E+01 -2.017631814E+02  2.833231661E+02  1.250000000E+02  0.00000E+00  9.000E+00
      25     1     1     2     0     0  1.205109579E+02  6.268768165E+01 -8.547082412E+01  2.034278697E+02  1.250000000E+02  0.00000E+00  9.000E+00
      21     1     1     2   501   512  3.290150131E+01 -4.260653563E+01 -1.413004780E+01  5.565504395E+01  1.305872339E-06  0.00000E+00  9.000E+00
#rwgt            1           1   5.6353759489399136E-002           5      203552           0
</event>
<event>
      5   9999 -3.79277E-02  3.42948E+01 -1.00000E+00  1.49111E-01
      21    -1     0     0   511   501  0.000000000E+00  0.000000000E+00  1.092317778E+03  1.092317778E+03  0.000000000E+00  0.00000E+00  9.000E+00
      21    -1     0     0   501   502  0.000000000E+00  0.000000000E+00 -1.032514193E+02  1.032514193E+02  0.000000000E+00  0.00000E+00  9.000E+00
      25     1     1     2     0     0 -2.198612481E+02 -8.504676696E+01  4.008948656E+02  4.815741005E+02  1.250000000E+02  0.00000E+00  9.000E+00
      25     1     1     2     0     0  1.871168475E+02  7.485189803E+01  1.637538113E+02  2.881940873E+02  1.250000000E+02  0.00000E+00  9.000E+00
      21     1     1     2   511   502  3.274440059E+01  1.019486893E+01  4.244176819E+02  4.258010097E+02  5.394796609E-06  0.00000E+00  9.000E+00
#rwgt            1           1 -0.12640627293135354                5      203660           0
</event>
<event>
      5   9999  3.79277E-02  2.27085E+01 -1.00000E+00  1.61943E-01
      21    -1     0     0   502   501  0.000000000E+00  0.000000000E+00  1.980439347E+02  1.980439347E+02  0.000000000E+00  0.00000E+00  9.000E+00
      21    -1     0     0   512   502  0.000000000E+00  0.000000000E+00 -8.650451048E+02  8.650451048E+02  0.000000000E+00  0.00000E+00  9.000E+00
      25     1     1     2     0     0  7.203214760E+00  1.683388881E+02 -2.556732248E+01  2.113493684E+02  1.250000000E+02  0.00000E+00  9.000E+00
      25     1     1     2     0     0 -1.951621429E+01 -1.874193800E+02 -1.685804654E+01  2.267511860E+02  1.250000000E+02  0.00000E+00  9.000E+00
      21     1     1     2   512   501  1.231299953E+01  1.908049188E+01 -6.245758011E+02  6.249884850E+02  7.629394531E-06  0.00000E+00  9.000E+00
#rwgt            1           1   4.2438101396592626E-002           5      203791           0
</event>
<event>
      5   9999  3.79277E-02  6.62630E+01 -1.00000E+00  1.32439E-01
      21    -1     0     0   502   501  0.000000000E+00  0.000000000E+00  2.785930272E+01  2.785930272E+01  0.000000000E+00  0.00000E+00  9.000E+00
       1    -1     0     0   501     0  0.000000000E+00  0.000000000E+00 -1.571485056E+03  1.571485056E+03  0.000000000E+00  0.00000E+00  9.000E+00
      25     1     1     2     0     0  1.098613234E+02 -1.381675401E+01 -3.924600487E+02  4.265094406E+02  1.250000000E+02  0.00000E+00  9.000E+00
      25     1     1     2     0     0 -7.792201364E+01 -4.424062556E+01 -9.015173986E+02  9.145423408E+02  1.250000000E+02  0.00000E+00  9.000E+00
       1     1     1     2   502     0 -3.193930976E+01  5.805737958E+01 -2.496483063E+02  2.582925776E+02  0.000000000E+00  0.00000E+00  9.000E+00
#rwgt            1           1   3.2249575052508597E-002           5      204006           0
</event>
<event>
      5   9999  3.79277E-02  3.09652E+01 -1.00000E+00  1.52091E-01
      21    -1     0     0   511   501  0.000000000E+00  0.000000000E+00  1.878724649E+02  1.878724649E+02  0.000000000E+00  0.00000E+00  9.000E+00
      21    -1     0     0   501   502  0.000000000E+00  0.000000000E+00 -5.708219396E+02  5.708219396E+02  0.000000000E+00  0.00000E+00  9.000E+00
      25     1     1     2     0     0  1.443575418E+02 -2.264881934E+02 -3.151229328E+02  4.325083402E+02  1.250000000E+02  0.00000E+00  9.000E+00
      25     1     1     2     0     0 -1.290771394E+02  1.995558166E+02 -9.515002189E+01  2.848893795E+02  1.250000000E+02  0.00000E+00  9.000E+00
      21     1     1     2   511   502 -1.528040236E+01  2.693237679E+01  2.732347993E+01  4.129668475E+01  4.768371582E-07  0.00000E+00  9.000E+00
#rwgt            1           1   3.1977321440180520E-002           5      204087           0
</event>
<event>
      5   9999  3.79277E-02  9.87007E+01 -1.00000E+00  1.24084E-01
      21    -1     0     0   502   501  0.000000000E+00  0.000000000E+00  3.352464326E+02  3.352464326E+02  0.000000000E+00  0.00000E+00  9.000E+00
      21    -1     0     0   512   502  0.000000000E+00  0.000000000E+00 -4.878342599E+02  4.878342599E+02  0.000000000E+00  0.00000E+00  9.000E+00
      25     1     1     2     0     0 -2.075698128E+01  9.950087825E+01  2.848062586E+02  3.272168730E+02  1.250000000E+02  0.00000E+00  9.000E+00
      25     1     1     2     0     0  5.041920165E+01 -5.362800280E+00 -2.539831745E+02  2.875818292E+02  1.250000000E+02  0.00000E+00  9.000E+00
      21     1     1     2   512   501 -2.966222037E+01 -9.413807797E+01 -1.834109114E+02  2.082819903E+02  0.000000000E+00  0.00000E+00  9.000E+00
#rwgt            1           1   4.9813442914269708E-002           5      204273           0
</event>
<event>
      5   9999  3.79277E-02  7.34440E+00 -1.00000E+00  2.12647E-01
      21    -1     0     0   511   501  0.000000000E+00  0.000000000E+00  1.424354058E+02  1.424354058E+02  0.000000000E+00  0.00000E+00  9.000E+00
      21    -1     0     0   501   502  0.000000000E+00  0.000000000E+00 -5.430912672E+02  5.430912672E+02  0.000000000E+00  0.00000E+00  9.000E+00
      25     1     1     2     0     0  1.351382189E+02 -1.195483806E+02 -4.001241541E+02  4.563753852E+02  1.250000000E+02  0.00000E+00  9.000E+00
      25     1     1     2     0     0 -1.278944417E+02  1.183368392E+02 -1.283099217E+01  2.148260461E+02  1.250000000E+02  0.00000E+00  9.000E+00
      21     1     1     2   511   502 -7.243777140E+00  1.211541414E+00  1.229928492E+01  1.432524168E+01  3.371747881E-07  0.00000E+00  9.000E+00
#rwgt            1           1   2.4916695067481721E-002           5      204385           0
</event>
<event>
      5   9999  3.79277E-02  2.10594E+01 -1.00000E+00  1.64541E-01
      21    -1     0     0   502   501  0.000000000E+00  0.000000000E+00  5.393720122E+01  5.393720122E+01  0.000000000E+00  0.00000E+00  9.000E+00
      21    -1     0     0   512   502  0.000000000E+00  0.000000000E+00 -1.846988332E+03  1.846988332E+03  0.000000000E+00  0.00000E+00  9.000E+00
      25     1     1     2     0     0 -1.533798481E+02 -9.351330081E+01 -3.490315152E+02  4.119685836E+02  1.250000000E+02  0.00000E+00  9.000E+00
      25     1     1     2     0     0  1.414271229E+02  7.617462991E+01 -4.408868299E+02  4.856031323E+02  1.250000000E+02  0.00000E+00  9.000E+00
      21     1     1     2   512   501  1.195272517E+01  1.733867090E+01 -1.003132786E+03  1.003353818E+03  0.000000000E+00  0.00000E+00  9.000E+00
#rwgt            1           1   8.7417124980345151E-002           5      204767           0
</event>
<event>
      5   9999  3.79277E-02  2.16622E+01 -1.00000E+00  1.63558E-01
      21    -1     0     0   502   511  0.000000000E+00  0.000000000E+00  4.272266133E+02  4.272266133E+02  0.000000000E+00  0.00000E+00  9.000E+00
      21    -1     0     0   501   502  0.000000000E+00  0.000000000E+00 -3.598784994E+02  3.598784994E+02  0.000000000E+00  0.00000E+00  9.000E+00
      25     1     1     2     0     0  2.099170531E+01  1.802614499E+02 -2.540359924E+02  3.362947032E+02  1.250000000E+02  0.00000E+00  9.000E+00
      25     1     1     2     0     0 -3.246933297E+01 -1.618898684E+02  1.028885979E+02  2.312437040E+02  1.250000000E+02  0.00000E+00  9.000E+00
      21     1     1     2   501   511  1.147762765E+01 -1.837158142E+01  2.184955084E+02  2.195667054E+02  2.697398305E-06  0.00000E+00  9.000E+00
#rwgt            1           1   4.4845381823378390E-002           5      205033           0
</event>
<event>
      5   9999  3.79277E-02  4.14901E+01 -1.00000E+00  1.43862E-01
      21    -1     0     0   502   501  0.000000000E+00  0.000000000E+00  3.288057648E+02  3.288057648E+02  0.000000000E+00  0.00000E+00  9.000E+00
      21    -1     0     0   512   502  0.000000000E+00  0.000000000E+00 -2.565332670E+02  2.565332670E+02  0.000000000E+00  0.00000E+00  9.000E+00
      25     1     1     2     0     0 -1.423472452E+02  1.028156373E+02  1.278711342E+02  2.506188749E+02  1.250000000E+02  0.00000E+00  9.000E+00
      25     1     1     2     0     0  1.819417990E+02 -1.152133065E+02  1.861433800E+01  2.496966515E+02  1.250000000E+02  0.00000E+00  9.000E+00
      21     1     1     2   512   501 -3.959455380E+01  1.239766922E+01 -7.421297443E+01  8.502350538E+01  9.536743164E-07  0.00000E+00  9.000E+00
#rwgt            1           1   3.5998001313180164E-002           5      205175           0
</event>
<event>
      5   9999  3.79277E-02  1.35144E+01 -1.00000E+00  1.81760E-01
      21    -1     0     0   502   501  0.000000000E+00  0.000000000E+00  5.407908871E+01  5.407908871E+01  0.000000000E+00  0.00000E+00  9.000E+00
       1    -1     0     0   501     0  0.000000000E+00  0.000000000E+00 -2.769312416E+03  2.769312416E+03  0.000000000E+00  0.00000E+00  9.000E+00
      25     1     1     2     0     0  7.529960011E+01  1.540071964E+02 -1.914146821E+02  2.857495876E+02  1.250000000E+02  0.00000E+00  9.000E+00
      25     1     1     2     0     0 -7.581856580E+01 -1.405027615E+02 -1.489842024E+03  1.503576981E+03  1.250000000E+02  0.00000E+00  9.000E+00
       1     1     1     2   502     0  5.189656947E-01 -1.350443485E+01 -1.033976622E+03  1.034064937E+03  0.000000000E+00  0.00000E+00  9.000E+00
#rwgt            1           1   4.0429564583704024E-002           5      205345           0
</event>
<event>
      5   9999  3.79277E-02  4.92785E+01 -1.00000E+00  1.39437E-01
      21    -1     0     0   502   501  0.000000000E+00  0.000000000E+00  1.050454056E+03  1.050454056E+03  0.000000000E+00  0.00000E+00  9.000E+00
      21    -1     0     0   511   502  0.000000000E+00  0.000000000E+00 -2.356961180E+02  2.356961180E+02  0.000000000E+00  0.00000E+00  9.000E+00
      25     1     1     2     0     0  8.773589761E+01 -1.237522464E+02  9.771894241E+02  9.967629491E+02  1.250000000E+02  0.00000E+00  9.000E+00
      25     1     1     2     0     0 -1.164139317E+02  8.367807314E+01 -1.302973531E+02  2.305572025E+02  1.250000000E+02  0.00000E+00  9.000E+00
      21     1     1     2   511   501  2.867803408E+01  4.007417323E+01 -3.213413321E+01  5.883002224E+01  0.000000000E+00  0.00000E+00  9.000E+00
#rwgt            1           1   3.9202839073530019E-002           5      205895           0
</event>
<event>
      5   9999  3.79277E-02  2.64372E+01 -1.00000E+00  1.56954E-01
      21    -1     0     0   502   512  0.000000000E+00  0.000000000E+00  8.416639980E+02  8.416639980E+02  0.000000000E+00  0.00000E+00  9.000E+00
      21    -1     0     0   501   502  0.000000000E+00  0.000000000E+00 -7.786654698E+01  7.786654698E+01  0.000000000E+00  0.00000E+00  9.000E+00
      25     1     1     2     0     0 -9.645420290E+01 -6.202377077E+01  5.921329770E+01  1.796707434E+02  1.250000000E+02  0.00000E+00  9.000E+00
      25     1     1     2     0     0  7.174161805E+01  7.141588873E+01  3.604348404E+02  3.946965456E+02  1.250000000E+02  0.00000E+00  9.000E+00
      21     1     1     2   501   512  2.471258485E+01 -9.392117966E+00  3.441493129E+02  3.451632560E+02  0.000000000E+00  0.00000E+00  9.000E+00
#rwgt            1           1   4.4405561305956166E-002           5      206056           0
</event>
<event>
      5   9999  3.79277E-02  3.32286E+02 -1.00000E+00  1.04169E-01
      21    -1     0     0   502   501  0.000000000E+00  0.000000000E+00  5.870327122E+02  5.870327122E+02  0.000000000E+00  0.00000E+00  9.000E+00
       2    -1     0     0   501     0  0.000000000E+00  0.000000000E+00 -1.299924167E+03  1.299924167E+03  0.000000000E+00  0.00000E+00  9.000E+00
      25     1     1     2     0     0  2.087850980E+02  4.190164047E+01  4.758594057E+01  2.514684600E+02  1.250000000E+02  0.00000E+00  9.000E+00
      25     1     1     2     0     0  1.135022244E+02  3.899759114E+01  3.959814910E+02  4.322382541E+02  1.250000000E+02  0.00000E+00  9.000E+00
       2     1     1     2   502     0 -3.222873224E+02 -8.089923161E+01 -1.156458886E+03  1.203250165E+03  2.157918644E-05  0.00000E+00  9.000E+00
#rwgt            2          13   1.3484270692734855E-003           5      206304           0
</event>
<event>
      5   9999  3.79277E-02  7.88400E+00 -1.00000E+00  2.08503E-01
      21    -1     0     0   502   511  0.000000000E+00  0.000000000E+00  8.416890472E+02  8.416890472E+02  0.000000000E+00  0.00000E+00  9.000E+00
      21    -1     0     0   501   502  0.000000000E+00  0.000000000E+00 -7.974387865E+01  7.974387865E+01  0.000000000E+00  0.00000E+00  9.000E+00
      25     1     1     2     0     0  1.578859991E+02 -4.260622949E+00  6.404316296E+02  6.713596755E+02  1.250000000E+02  0.00000E+00  9.000E+00
      25     1     1     2     0     0 -1.656992085E+02  3.206501221E+00  1.069584489E+02  2.335200615E+02  1.250000000E+02  0.00000E+00  9.000E+00
      21     1     1     2   501   511  7.813209437E+00  1.054121727E+00  1.455509006E+01  1.655318884E+01  0.000000000E+00  0.00000E+00  9.000E+00
#rwgt            1           1   7.9254725113855395E-002           5      206338           0
</event>
<event>
      5   9999  3.79277E-02  5.50530E+01 -1.00000E+00  1.36731E-01
      21    -1     0     0   512   501  0.000000000E+00  0.000000000E+00  2.408925903E+02  2.408925903E+02  0.000000000E+00  0.00000E+00  9.000E+00
      21    -1     0     0   501   502  0.000000000E+00  0.000000000E+00 -3.284052898E+02  3.284052898E+02  0.000000000E+00  0.00000E+00  9.000E+00
      25     1     1     2     0     0 -4.476822612E+01 -8.578403902E+01  8.406359648E+01  1.790384977E+02  1.250000000E+02  0.00000E+00  9.000E+00
      25     1     1     2     0     0 -2.641662167E+00  1.137686490E+02 -2.455113154E+02  2.980789994E+02  1.250000000E+02  0.00000E+00  9.000E+00
      21     1     1     2   512   502  4.740988828E+01 -2.798461000E+01  7.393501946E+01  9.218038298E+01  9.536743164E-07  0.00000E+00  9.000E+00
#rwgt            1           1   4.8594716590459913E-002           5      206761           0
</event>
<event>
      5   9999  3.79277E-02  5.01377E+01 -1.00000E+00  1.39007E-01
      21    -1     0     0   502   501  0.000000000E+00  0.000000000E+00  2.011528421E+02  2.011528421E+02  0.000000000E+00  0.00000E+00  9.000E+00
      21    -1     0     0   511   502  0.000000000E+00  0.000000000E+00 -3.911774907E+02  3.911774907E+02  0.000000000E+00  0.00000E+00  9.000E+00
      25     1     1     2     0     0  1.020467469E+02  1.618154459E+02 -4.826864919E+01  2.335650650E+02  1.250000000E+02  0.00000E+00  9.000E+00
      25     1     1     2     0     0 -5.720887683E+01 -1.842509429E+02 -2.443273252E+01  2.311779054E+02  1.250000000E+02  0.00000E+00  9.000E+00
      21     1     1     2   511   501 -4.483787006E+01  2.243549695E+01 -1.173232668E+02  1.275873624E+02  1.907348633E-06  0.00000E+00  9.000E+00
#rwgt            1           1  0.11354593865182486                5      206876           0
</event>
<event>
      5   9999  3.79277E-02  4.18403E+01 -1.00000E+00  1.43639E-01
      21    -1     0     0   502   501  0.000000000E+00  0.000000000E+00  1.064738100E+02  1.064738100E+02  0.000000000E+00  0.00000E+00  9.000E+00
      21    -1     0     0   512   502  0.000000000E+00  0.000000000E+00 -9.920598457E+02  9.920598457E+02  0.000000000E+00  0.00000E+00  9.000E+00
      25     1     1     2     0     0  3.996008038E+01 -1.230192899E+02 -2.925084785E+02  3.433901043E+02  1.250000000E+02  0.00000E+00  9.000E+00
      25     1     1     2     0     0 -8.178989779E+01  1.220833687E+02 -3.569952736E+01  1.961973306E+02  1.250000000E+02  0.00000E+00  9.000E+00
      21     1     1     2   512   501  4.182981741E+01  9.359212010E-01 -5.573780299E+02  5.589462208E+02  0.000000000E+00  0.00000E+00  9.000E+00
#rwgt            1           1   4.9428742671687460E-002           5      206980           0
</event>
<event>
      5   9999  3.79277E-02  1.20892E+01 -1.00000E+00  1.86691E-01
      21    -1     0     0   502   511  0.000000000E+00  0.000000000E+00  6.706641812E+01  6.706641812E+01  0.000000000E+00  0.00000E+00  9.000E+00
      21    -1     0     0   501   502  0.000000000E+00  0.000000000E+00 -7.279173907E+02  7.279173907E+02  0.000000000E+00  0.00000E+00  9.000E+00
      25     1     1     2     0     0  1.212722702E+02  5.883096385E+01 -3.703919322E+02  4.135011841E+02  1.250000000E+02  0.00000E+00  9.000E+00
      25     1     1     2     0     0 -1.328299768E+02 -6.237604109E+01 -3.060834788E+02  3.617273410E+02  1.250000000E+02  0.00000E+00  9.000E+00
      21     1     1     2   501   511  1.155770666E+01  3.545077242E+00  1.562443845E+01  1.975528367E+01  2.920019320E-07  0.00000E+00  9.000E+00
#rwgt            1           1   4.4087340175505203E-002           5      207087           0
</event>
<event>
      5   9999  3.79277E-02  5.15471E+01 -1.00000E+00  1.38325E-01
      21    -1     0     0   512   501  0.000000000E+00  0.000000000E+00  3.613293893E+02  3.613293893E+02  0.000000000E+00  0.00000E+00  9.000E+00
      21    -1     0     0   501   502  0.000000000E+00  0.000000000E+00 -1.759994009E+03  1.759994009E+03  0.000000000E+00  0.00000E+00  9.000E+00
      25     1     1     2     0     0  8.570881447E+01  9.845903999E+01 -7.065145240E+02  7.292653537E+02  1.250000000E+02  0.00000E+00  9.000E+00
      25     1     1     2     0     0 -9.857734232E+01 -4.854410335E+01 -1.033511745E+03  1.046826418E+03  1.250000000E+02  0.00000E+00  9.000E+00
      21     1     1     2   512   502  1.286852785E+01 -4.991493664E+01  3.413616496E+02  3.452316262E+02  5.394796609E-06  0.00000E+00  9.000E+00
#rwgt            1           1  0.11970260369824005                5      207365           0
</event>
<event>
      5   9999  3.79277E-02  3.71482E+01 -1.00000E+00  1.46861E-01
      21    -1     0     0   511   501  0.000000000E+00  0.000000000E+00  6.376469349E+02  6.376469349E+02  0.000000000E+00  0.00000E+00  9.000E+00
      21    -1     0     0   501   502  0.000000000E+00  0.000000000E+00 -1.116744033E+02  1.116744033E+02  0.000000000E+00  0.00000E+00  9.000E+00
      25     1     1     2     0     0 -1.196539016E+02  1.135528322E+02  2.880398116E+02  3.546875173E+02  1.250000000E+02  0.00000E+00  9.000E+00
      25     1     1     2     0     0  1.539301050E+02 -1.278752067E+02  1.079925420E+02  2.594878318E+02  1.250000000E+02  0.00000E+00  9.000E+00
      21     1     1     2   511   502 -3.427620343E+01  1.432237451E+01  1.299401780E+02  1.351459891E+02  1.907348633E-06  0.00000E+00  9.000E+00
#rwgt            1           1   2.0427832486844946E-002           5      207509           0
</event>
<event>
      5   9999  3.79277E-02  7.30820E+01 -1.00000E+00  1.30280E-01
      21    -1     0     0   502   501  0.000000000E+00  0.000000000E+00  3.491726187E+02  3.491726187E+02  0.000000000E+00  0.00000E+00  9.000E+00
      21    -1     0     0   501   512  0.000000000E+00  0.000000000E+00 -1.495366441E+03  1.495366441E+03  0.000000000E+00  0.00000E+00  9.000E+00
      25     1     1     2     0     0  1.021531086E+02  2.418003013E+02 -5.066257759E+00  2.907805191E+02  1.250000000E+02  0.00000E+00  9.000E+00
      25     1     1     2     0     0 -1.431737442E+02 -1.813165452E+02  1.212190256E+02  2.892982246E+02  1.250000000E+02  0.00000E+00  9.000E+00
      21     1     1     2   502   512  4.102063562E+01 -6.048375615E+01 -1.262346590E+03  1.264460316E+03  1.525878906E-05  0.00000E+00  9.000E+00
#rwgt            1           1   5.6190269577562423E-002           5      207822           0
</event>
<event>
      5   9999  3.79277E-02  2.43422E+01 -1.00000E+00  1.59623E-01
      21    -1     0     0   511   501  0.000000000E+00  0.000000000E+00  5.981260686E+02  5.981260686E+02  0.000000000E+00  0.00000E+00  9.000E+00
      21    -1     0     0   501   502  0.000000000E+00  0.000000000E+00 -1.007870488E+03  1.007870488E+03  0.000000000E+00  0.00000E+00  9.000E+00
      25     1     1     2     0     0  8.294418866E+01  1.374975895E+02 -1.735227190E+02  2.674330937E+02  1.250000000E+02  0.00000E+00  9.000E+00
      25     1     1     2     0     0 -6.158971127E+01 -1.491820654E+02 -7.738810619E+02  8.003533464E+02  1.250000000E+02  0.00000E+00  9.000E+00
      21     1     1     2   511   502 -2.135447738E+01  1.168447582E+01  5.376593614E+02  5.382101166E+02  0.000000000E+00  0.00000E+00  9.000E+00
#rwgt            1           1   2.6632288361919904E-002           5      207917           0
</event>
<event>
      5   9999  3.79277E-02  6.87179E+01 -1.00000E+00  1.31629E-01
       2    -1     0     0   502     0  0.000000000E+00  0.000000000E+00  2.632389791E+03  2.632389791E+03  0.000000000E+00  0.00000E+00  9.000E+00
      21    -1     0     0   501   502  0.000000000E+00  0.000000000E+00 -6.239958437E+01  6.239958437E+01  0.000000000E+00  0.00000E+00  9.000E+00
      25     1     1     2     0     0 -7.926251937E+01  1.541538098E+02  1.492577566E+02  2.606699484E+02  1.250000000E+02  0.00000E+00  9.000E+00
      25     1     1     2     0     0  8.271340110E+01 -8.552261998E+01  1.318261835E+03  1.329509267E+03  1.250000000E+02  0.00000E+00  9.000E+00
       2     1     1     2   501     0 -3.450881726E+00 -6.863118985E+01  1.102470615E+03  1.104610161E+03  0.000000000E+00  0.00000E+00  9.000E+00
#rwgt            1           1   3.6030089764618668E-002           5      208082           0
</event>
<event>
      5   9999  3.79277E-02  3.85356E+01 -1.00000E+00  1.45852E-01
      21    -1     0     0   502   501  0.000000000E+00  0.000000000E+00  1.832811800E+02  1.832811800E+02  0.000000000E+00  0.00000E+00  9.000E+00
      21    -1     0     0   511   502  0.000000000E+00  0.000000000E+00 -8.084322344E+02  8.084322344E+02  0.000000000E+00  0.00000E+00  9.000E+00
      25     1     1     2     0     0 -3.132838294E+02 -2.806431386E-01 -3.004830236E+02  4.517320932E+02  1.250000000E+02  0.00000E+00  9.000E+00
      25     1     1     2     0     0  3.516857472E+02 -2.926777204E+00 -2.316395824E+02  4.392872944E+02  1.250000000E+02  0.00000E+00  9.000E+00
      21     1     1     2   511   501 -3.840191783E+01  3.207420342E+00 -9.302844837E+01  1.006940269E+02  1.348699152E-06  0.00000E+00  9.000E+00
#rwgt            1           1   4.1943006904384496E-002           5      208225           0
</event>
<event>
      5   9999  3.79277E-02  2.47783E+01 -1.00000E+00  1.59041E-01
      21    -1     0     0   502   501  0.000000000E+00  0.000000000E+00  2.301019165E+02  2.301019165E+02  0.000000000E+00  0.00000E+00  9.000E+00
       2    -1     0     0   501     0  0.000000000E+00  0.000000000E+00 -1.011026227E+03  1.011026227E+03  0.000000000E+00  0.00000E+00  9.000E+00
      25     1     1     2     0     0  9.899737940E+01  3.962295178E+01  1.699391253E+02  2.363784375E+02  1.250000000E+02  0.00000E+00  9.000E+00
      25     1     1     2     0     0 -7.432775095E+01 -4.194112316E+01 -1.874205584E+02  2.409048320E+02  1.250000000E+02  0.00000E+00  9.000E+00
       2     1     1     2   502     0 -2.466962845E+01  2.318171380E+00 -7.634428770E+02  7.638448736E+02  1.525878906E-05  0.00000E+00  9.000E+00
#rwgt            1           1   4.3200271665238925E-002           5      208406           0
</event>
<event>
      5   9999  3.79277E-02  2.47996E+01 -1.00000E+00  1.59013E-01
      21    -1     0     0   511   501  0.000000000E+00  0.000000000E+00  1.526405869E+02  1.526405869E+02  0.000000000E+00  0.00000E+00  9.000E+00
      21    -1     0     0   501   502  0.000000000E+00  0.000000000E+00 -2.552535820E+02  2.552535820E+02  0.000000000E+00  0.00000E+00  9.000E+00
      25     1     1     2     0     0 -8.424781263E+01  7.739575941E+01 -2.209003109E+01  1.708823191E+02  1.250000000E+02  0.00000E+00  9.000E+00
      25     1     1     2     0     0  7.099722158E+01 -9.835858167E+01 -1.039940672E+02  2.028664144E+02  1.250000000E+02  0.00000E+00  9.000E+00
      21     1     1     2   511   502  1.325059105E+01  2.096282227E+01  2.347110318E+01  3.414543549E+01  6.743495762E-07  0.00000E+00  9.000E+00
#rwgt            1           1   4.3066124737072761E-002           5      208673           0
</event>
<event>
      5   9999  3.79277E-02  2.33628E+02 -1.00000E+00  1.09245E-01
       1    -1     0     0   502     0  0.000000000E+00  0.000000000E+00  4.049090170E+02  4.049090170E+02  0.000000000E+00  0.00000E+00  9.000E+00
      21    -1     0     0   501   502  0.000000000E+00  0.000000000E+00 -4.121800316E+02  4.121800316E+02  0.000000000E+00  0.00000E+00  9.000E+00
      25     1     1     2     0     0  1.246984746E+02  2.616589950E+02 -1.766312821E+02  3.617163931E+02  1.250000000E+02  0.00000E+00  9.000E+00
      25     1     1     2     0     0  5.556792124E+01 -1.130452490E+02  2.119028049E+01  1.787205925E+02  1.250000000E+02  0.00000E+00  9.000E+00
       1     1     1     2   501     0 -1.802663959E+02 -1.486137460E+02  1.481699870E+02  2.766520631E+02  1.907348633E-06  0.00000E+00  9.000E+00
#rwgt            1           1   4.1342638729715372E-002           5      208913           0
</event>
<event>
      5   9999  3.79277E-02  2.88183E+01 -1.00000E+00  1.54262E-01
      21    -1     0     0   511   501  0.000000000E+00  0.000000000E+00  1.868232090E+02  1.868232090E+02  0.000000000E+00  0.00000E+00  9.000E+00
      21    -1     0     0   501   502  0.000000000E+00  0.000000000E+00 -4.212353117E+02  4.212353117E+02  0.000000000E+00  0.00000E+00  9.000E+00
      25     1     1     2     0     0  8.314179509E+01 -1.781617164E+02 -2.283222914E+02  3.262058001E+02  1.250000000E+02  0.00000E+00  9.000E+00
      25     1     1     2     0     0 -1.011835782E+02  1.556897777E+02 -4.997929222E+01  2.293476685E+02  1.250000000E+02  0.00000E+00  9.000E+00
      21     1     1     2   511   502  1.804178308E+01  2.247193868E+01  4.388948093E+01  5.250505214E+01  4.768371582E-07  0.00000E+00  9.000E+00
#rwgt            1           1   3.1308691559314823E-002           5      208987           0
</event>
<event>
      5   9999  3.79277E-02  2.14174E+01 -1.00000E+00  1.63952E-01
      21    -1     0     0   502   512  0.000000000E+00  0.000000000E+00  2.519017467E+02  2.519017467E+02  0.000000000E+00  0.00000E+00  9.000E+00
      21    -1     0     0   501   502  0.000000000E+00  0.000000000E+00 -1.195876617E+03  1.195876617E+03  0.000000000E+00  0.00000E+00  9.000E+00
      25     1     1     2     0     0  3.346007223E+01  2.266876952E+02 -4.591164745E+02  5.281286062E+02  1.250000000E+02  0.00000E+00  9.000E+00
      25     1     1     2     0     0 -2.129722283E+01 -2.443163569E+02 -6.746551105E+02  7.286484558E+02  1.250000000E+02  0.00000E+00  9.000E+00
      21     1     1     2   501   512 -1.216284939E+01  1.762866173E+01  1.897967144E+02  1.910013021E+02  0.000000000E+00  0.00000E+00  9.000E+00
#rwgt            1           1   4.3720129149358390E-002           5      209175           0
</event>
<event>
      5   9999  3.79277E-02  5.38951E+01 -1.00000E+00  1.37242E-01
      21    -1     0     0   502   511  0.000000000E+00  0.000000000E+00  3.653841279E+02  3.653841279E+02  0.000000000E+00  0.00000E+00  9.000E+00
      21    -1     0     0   501   502  0.000000000E+00  0.000000000E+00 -2.503975720E+02  2.503975720E+02  0.000000000E+00  0.00000E+00  9.000E+00
      25     1     1     2     0     0 -2.394879125E+02  7.569282389E+00  1.377468722E+02  3.033330761E+02  1.250000000E+02  0.00000E+00  9.000E+00
      25     1     1     2     0     0  1.965487871E+02  2.500235155E+01 -6.596020089E+01  2.433768506E+02  1.250000000E+02  0.00000E+00  9.000E+00
      21     1     1     2   501   511  4.293912542E+01 -3.257163394E+01  4.319988457E+01  6.907177322E+01  8.259061849E-07  0.00000E+00  9.000E+00
#rwgt            1           1   4.7248625924485477E-002           5      209456           0
</event>
<event>
      5   9999  3.79277E-02  3.38818E+01 -1.00000E+00  1.49458E-01
      21    -1     0     0   512   501  0.000000000E+00  0.000000000E+00  8.649237517E+02  8.649237517E+02  0.000000000E+00  0.00000E+00  9.000E+00
      21    -1     0     0   501   502  0.000000000E+00  0.000000000E+00 -1.213520196E+02  1.213520196E+02  0.000000000E+00  0.00000E+00  9.000E+00
      25     1     1     2     0     0  1.360954472E+02  5.759587822E+01 -2.111834269E+01  1.947055221E+02  1.250000000E+02  0.00000E+00  9.000E+00
      25     1     1     2     0     0 -1.038057639E+02 -4.733172023E+01  6.684326010E+02  6.895237997E+02  1.250000000E+02  0.00000E+00  9.000E+00
      21     1     1     2   512   502 -3.228968332E+01 -1.026415799E+01  9.625747378E+01  1.020464495E+02  1.348699152E-06  0.00000E+00  9.000E+00
#rwgt            1           1   5.8683699979236711E-002           5      209556           0
</event>
<event>
      5   9999 -3.79277E-02  2.18523E+01 -1.00000E+00  1.63256E-01
      21    -1     0     0   511   501  0.000000000E+00  0.000000000E+00  7.303872571E+01  7.303872571E+01  0.000000000E+00  0.00000E+00  9.000E+00
      21    -1     0     0   501   502  0.000000000E+00  0.000000000E+00 -6.328280682E+02  6.328280682E+02  0.000000000E+00  0.00000E+00  9.000E+00
      25     1     1     2     0     0 -1.320021370E+02 -8.342822475E+01 -3.204619599E+02  3.777640806E+02  1.250000000E+02  0.00000E+00  9.000E+00
      25     1     1     2     0     0  1.409309810E+02  6.348330104E+01 -2.308977008E+02  3.046808480E+02  1.250000000E+02  0.00000E+00  9.000E+00
      21     1     1     2   511   502 -8.928843999E+00  1.994492371E+01 -8.429681780E+00  2.342186525E+01  3.371747881E-07  0.00000E+00  9.000E+00
#rwgt            1           1  -8.0646141390635070E-002           5      209696           0
</event>
<event>
      5   9999  3.79277E-02  1.99335E+01 -1.00000E+00  1.66489E-01
      21    -1     0     0   502   512  0.000000000E+00  0.000000000E+00  4.429580076E+02  4.429580076E+02  0.000000000E+00  0.00000E+00  9.000E+00
      21    -1     0     0   501   502  0.000000000E+00  0.000000000E+00 -1.899753173E+02  1.899753173E+02  0.000000000E+00  0.00000E+00  9.000E+00
      25     1     1     2     0     0 -6.695507256E+01 -1.307677198E+02 -5.370216259E+01  2.002301190E+02  1.250000000E+02  0.00000E+00  9.000E+00
      25     1     1     2     0     0  6.597253859E+01  1.506769470E+02  1.081863750E+02  2.332063677E+02  1.250000000E+02  0.00000E+00  9.000E+00
      21     1     1     2   501   512  9.825339794E-01 -1.990922716E+01  1.984984779E+02  1.994968382E+02  2.697398305E-06  0.00000E+00  9.000E+00
#rwgt            1           1   4.1265939204367927E-002           5      209912           0
</event>
<event>
      5   9999  3.79277E-02  1.15343E+02 -1.00000E+00  1.21102E-01
      21    -1     0     0   502   501  0.000000000E+00  0.000000000E+00  5.470991839E+02  5.470991839E+02  0.000000000E+00  0.00000E+00  9.000E+00
      21    -1     0     0   501   511  0.000000000E+00  0.000000000E+00 -2.669204979E+02  2.669204979E+02  0.000000000E+00  0.00000E+00  9.000E+00
      25     1     1     2     0     0 -1.090973561E+02 -3.044442552E+02  5.539922852E+01  3.511162374E+02  1.250000000E+02  0.00000E+00  9.000E+00
      25     1     1     2     0     0  8.681950170E+01  1.912730897E+02  2.446803601E+02  3.458561830E+02  1.250000000E+02  0.00000E+00  9.000E+00
      21     1     1     2   502   511  2.227785436E+01  1.131711655E+02 -1.990090261E+01  1.170472615E+02  1.800020799E-06  0.00000E+00  9.000E+00
#rwgt            1           1   3.2334979437601628E-002           5      210176           0
</event>
<event>
      5   9999  3.79277E-02  2.96187E+01 -1.00000E+00  1.53427E-01
      21    -1     0     0   502   501  0.000000000E+00  0.000000000E+00  4.768461283E+01  4.768461283E+01  0.000000000E+00  0.00000E+00  9.000E+00
      21    -1     0     0   512   502  0.000000000E+00  0.000000000E+00 -1.030248583E+03  1.030248583E+03  0.000000000E+00  0.00000E+00  9.000E+00
      25     1     1     2     0     0  4.727862932E+01  6.436275715E+01 -1.109433663E+02  1.852329987E+02  1.250000000E+02  0.00000E+00  9.000E+00
      25     1     1     2     0     0 -7.628415261E+01 -5.836705953E+01 -7.965216654E+02  8.119715198E+02  1.250000000E+02  0.00000E+00  9.000E+00
      21     1     1     2   512   501  2.900552329E+01 -5.995697619E+00 -7.509893883E+01  8.072867758E+01  0.000000000E+00  0.00000E+00  9.000E+00
#rwgt            1           1   3.7271768974806628E-002           5      210266           0
</event>
<event>
      5   9999  3.79277E-02  8.09228E+01 -1.00000E+00  1.28109E-01
       2    -1     0     0   502     0  0.000000000E+00  0.000000000E+00  3.536714212E+02  3.536714212E+02  0.000000000E+00  0.00000E+00  9.000E+00
      21    -1     0     0   501   502  0.000000000E+00  0.000000000E+00 -3.616293926E+02  3.616293926E+02  0.000000000E+00  0.00000E+00  9.000E+00
      25     1     1     2     0     0 -1.318266875E+02 -1.031789925E+02  2.100357020E+02  2.962501918E+02  1.250000000E+02  0.00000E+00  9.000E+00
      25     1     1     2     0     0  5.984710630E+01  1.401578652E+02 -2.612713223E+02  3.272821523E+02  1.250000000E+02  0.00000E+00  9.000E+00
       2     1     1     2   501     0  7.197958122E+01 -3.697887274E+01  4.327764893E+01  9.176846974E+01  8.259061849E-07  0.00000E+00  9.000E+00
#rwgt            1           1   3.9742569463414555E-002           5      210425           0
</event>
<event>
      5   9999  3.79277E-02  1.34548E+01 -1.00000E+00  1.81950E-01
      21    -1     0     0   502   511  0.000000000E+00  0.000000000E+00  7.362563678E+02  7.362563678E+02  0.000000000E+00  0.00000E+00  9.000E+00
      21    -1     0     0   501   502  0.000000000E+00  0.000000000E+00 -1.578460925E+02  1.578460925E+02  0.000000000E+00  0.00000E+00  9.000E+00
      25     1     1     2     0     0  1.537790851E+02  2.511432670E+02  3.130667897E+02  4.476122903E+02  1.250000000E+02  0.00000E+00  9.000E+00
      25     1     1     2     0     0 -1.605960659E+02 -2.627432838E+02  2.184548012E+02  3.977092276E+02  1.250000000E+02  0.00000E+00  9.000E+00
      21     1     1     2   501   511  6.816980836E+00  1.160001678E+01  4.688868441E+01  4.878094241E+01  6.743495762E-07  0.00000E+00  9.000E+00
#rwgt            1           1   3.2968726267227216E-002           5      210551           0
</event>
<event>
      5   9999  3.79277E-02  9.08447E+01 -1.00000E+00  1.25733E-01
      21    -1     0     0   502   501  0.000000000E+00  0.000000000E+00  8.540981534E+02  8.540981534E+02  0.000000000E+00  0.00000E+00  9.000E+00
      21    -1     0     0   512   502  0.000000000E+00  0.000000000E+00 -5.683613551E+02  5.683613551E+02  0.000000000E+00  0.00000E+00  9.000E+00
      25     1     1     2     0     0 -2.618639888E+02  4.318292902E+00  3.046129990E+02  4.207201867E+02  1.250000000E+02  0.00000E+00  9.000E+00
      25     1     1     2     0     0  2.089738534E+02 -7.817887787E+01  4.535345106E+02  5.206731802E+02  1.250000000E+02  0.00000E+00  9.000E+00
      21     1     1     2   512   501  5.289013540E+01  7.386058497E+01 -4.724107113E+02  4.810661416E+02  9.344061824E-06  0.00000E+00  9.000E+00
#rwgt            1           1   1.4192818345419363E-002           5      210837           0
</event>
<event>
      5   9999  3.79277E-02  4.62644E+01 -1.00000E+00  1.41027E-01
      21    -1     0     0   502   501  0.000000000E+00  0.000000000E+00  1.175866573E+02  1.175866573E+02  0.000000000E+00  0.00000E+00  9.000E+00
      21    -1     0     0   501   511  0.000000000E+00  0.000000000E+00 -4.548907940E+02  4.548907940E+02  0.000000000E+00  0.00000E+00  9.000E+00
      25     1     1     2     0     0  1.276672300E+02 -3.099489380E+01 -1.101108650E+02  2.121532645E+02  1.250000000E+02  0.00000E+00  9.000E+00
      25     1     1     2     0     0 -1.688216662E+02  9.859419942E+00 -1.166248210E+02  2.404668626E+02  1.250000000E+02  0.00000E+00  9.000E+00
      21     1     1     2   502   511  4.115443624E+01  2.113547386E+01 -1.105684507E+02  1.198573242E+02  1.348699152E-06  0.00000E+00  9.000E+00
#rwgt            1           1  0.18905683858777955                5      210906           0
</event>
<event>
      5   9999  3.79277E-02  1.39275E+01 -1.00000E+00  1.80474E-01
      21    -1     0     0   502   501  0.000000000E+00  0.000000000E+00  3.294456228E+02  3.294456228E+02  0.000000000E+00  0.00000E+00  9.000E+00
      21    -1     0     0   501   512  0.000000000E+00  0.000000000E+00 -2.713847599E+02  2.713847599E+02  0.000000000E+00  0.00000E+00  9.000E+00
      25     1     1     2     0     0 -1.786976239E+02 -2.268264022E+01  1.549651495E+02  2.684893676E+02  1.250000000E+02  0.00000E+00  9.000E+00
      25     1     1     2     0     0  1.674871219E+02  3.094700779E+01  2.219349470E+01  2.124316467E+02  1.250000000E+02  0.00000E+00  9.000E+00
      21     1     1     2   502   512  1.121050193E+01 -8.264367566E+00 -1.190977813E+02  1.199093685E+02  1.348699152E-06  0.00000E+00  9.000E+00
#rwgt            1           1   3.0561858315769373E-002           5      211071           0
</event>
<event>
      5   9999  3.79277E-02  1.51806E+02 -1.00000E+00  1.16188E-01
      21    -1     0     0   502   501  0.000000000E+00  0.000000000E+00  6.140273274E+02  6.140273274E+02  0.000000000E+00  0.00000E+00  9.000E+00
      21    -1     0     0   501   511  0.000000000E+00  0.000000000E+00 -1.121878394E+02  1.121878394E+02  0.000000000E+00  0.00000E+00  9.000E+00
      25     1     1     2     0     0  1.202003752E+02  1.635817857E+01  2.998584011E+02  3.467791529E+02  1.250000000E+02  0.00000E+00  9.000E+00
      25     1     1     2     0     0 -3.454417115E+01  1.089740470E+02  1.049595540E+02  1.992740592E+02  1.250000000E+02  0.00000E+00  9.000E+00
      21     1     1     2   502   511 -8.565620406E+01 -1.253322256E+02  9.702153294E+01  1.801619547E+02  1.348699152E-06  0.00000E+00  9.000E+00
#rwgt            1           1   4.3120377426283864E-002           5      211298           0
</event>
<event>
      5   9999  3.79277E-02  5.40667E+01 -1.00000E+00  1.37165E-01
      21    -1     0     0   502   501  0.000000000E+00  0.000000000E+00  8.992583018E+02  8.992583018E+02  0.000000000E+00  0.00000E+00  9.000E+00
      21    -1     0     0   512   502  0.000000000E+00  0.000000000E+00 -7.673524808E+01  7.673524808E+01  0.000000000E+00  0.00000E+00  9.000E+00
      25     1     1     2     0     0 -4.412444049E+01  5.109659965E+01  7.108026417E+02  7.248608309E+02  1.250000000E+02  0.00000E+00  9.000E+00
      25     1     1     2     0     0 -8.191304820E+00 -6.474456337E+01  1.322269003E+02  1.933078093E+02  1.250000000E+02  0.00000E+00  9.000E+00
      21     1     1     2   512   501  5.231574531E+01  1.364796372E+01 -2.050648829E+01  5.782490971E+01  1.907348633E-06  0.00000E+00  9.000E+00
#rwgt            1           1   4.9277960563938288E-002           5      211334           0
</event>
<event>
      5   9999  3.79277E-02  5.60685E+01 -1.00000E+00  1.36295E-01
      21    -1     0     0   502   511  0.000000000E+00  0.000000000E+00  1.095370579E+02  1.095370579E+02  0.000000000E+00  0.00000E+00  9.000E+00
      21    -1     0     0   501   502  0.000000000E+00  0.000000000E+00 -5.192893874E+02  5.192893874E+02  0.000000000E+00  0.00000E+00  9.000E+00
      25     1     1     2     0     0  5.606122815E+01 -8.602971657E+01 -1.933458426E+01  1.629196108E+02  1.250000000E+02  0.00000E+00  9.000E+00
      25     1     1     2     0     0 -3.145779965E+01  1.364117857E+02 -3.487802399E+02  3.960687115E+02  1.250000000E+02  0.00000E+00  9.000E+00
      21     1     1     2   501   511 -2.460342851E+01 -5.038206916E+01 -4.163750525E+01  6.983812305E+01  1.168007728E-06  0.00000E+00  9.000E+00
#rwgt            1           1   3.9163948228001760E-002           5      211441           0
</event>
<event>
      5   9999  3.79277E-02  5.73718E+01 -1.00000E+00  1.35751E-01
      21    -1     0     0   502   501  0.000000000E+00  0.000000000E+00  1.642491375E+03  1.642491375E+03  0.000000000E+00  0.00000E+00  9.000E+00
      21    -1     0     0   501   512  0.000000000E+00  0.000000000E+00 -2.098496999E+02  2.098496999E+02  0.000000000E+00  0.00000E+00  9.000E+00
      25     1     1     2     0     0 -1.052631651E+02  6.628363690E+01  6.607847742E+02  6.839118161E+02  1.250000000E+02  0.00000E+00  9.000E+00
      25     1     1     2     0     0  9.214001799E+01 -1.043293599E+01  9.595876313E+02  9.721275900E+02  1.250000000E+02  0.00000E+00  9.000E+00
      21     1     1     2   502   512  1.312314707E+01 -5.585070091E+01 -1.877307308E+02  1.963016685E+02  2.697398305E-06  0.00000E+00  9.000E+00
#rwgt            1           1   3.5117992449854814E-002           5      211507           0
</event>
<event>
      5   9999  3.79277E-02  2.29104E+02 -1.00000E+00  1.09541E-01
      21    -1     0     0   502   501  0.000000000E+00  0.000000000E+00  1.200356053E+03  1.200356053E+03  0.000000000E+00  0.00000E+00  9.000E+00
      21    -1     0     0   501   511  0.000000000E+00  0.000000000E+00 -9.626646613E+01  9.626646613E+01  0.000000000E+00  0.00000E+00  9.000E+00
      25     1     1     2     0     0 -1.049068683E+02 -3.189341847E+01  1.220265819E+02  2.062477342E+02  1.250000000E+02  0.00000E+00  9.000E+00
      25     1     1     2     0     0 -6.477569021E+01  1.858295172E+02  6.147020787E+02  6.574284334E+02  1.250000000E+02  0.00000E+00  9.000E+00
      21     1     1     2   502   511  1.696825585E+02 -1.539360987E+02  3.673609258E+02  4.329463511E+02  5.394796609E-06  0.00000E+00  9.000E+00
#rwgt            1           1   3.2775833543026316E-002           5      211582           0
</event>
<event>
      5   9999  3.79277E-02  2.48286E+01 -1.00000E+00  1.58975E-01
      21    -1     0     0   502   501  0.000000000E+00  0.000000000E+00  4.082681695E+02  4.082681695E+02  0.000000000E+00  0.00000E+00  9.000E+00
      21    -1     0     0   501   512  0.000000000E+00  0.000000000E+00 -1.379491321E+02  1.379491321E+02  0.000000000E+00  0.00000E+00  9.000E+00
      25     1     1     2     0     0  2.175177601E+01 -9.003244229E+01  2.795069099E+02  3.198876258E+02  1.250000000E+02  0.00000E+00  9.000E+00
      25     1     1     2     0     0 -9.758037045E+00  1.117719994E+02  3.871754059E+01  1.723724082E+02  1.250000000E+02  0.00000E+00  9.000E+00
      21     1     1     2   502   512 -1.199373897E+01 -2.173955716E+01 -4.790541319E+01  5.395726765E+01  1.348699152E-06  0.00000E+00  9.000E+00
#rwgt            1           1   2.9230371087996383E-002           5      211749           0
</event>
<event>
      5   9999  3.79277E-02  1.17113E+02 -1.00000E+00  1.20819E-01
      21    -1     0     0   511   501  0.000000000E+00  0.000000000E+00  7.575658184E+02  7.575658184E+02  0.000000000E+00  0.00000E+00  9.000E+00
      21    -1     0     0   501   502  0.000000000E+00  0.000000000E+00 -7.794101267E+01  7.794101267E+01  0.000000000E+00  0.00000E+00  9.000E+00
      25     1     1     2     0     0  9.347404060E+00  2.878430204E+01  3.886210752E+01  1.343546553E+02  1.250000000E+02  0.00000E+00  9.000E+00
      25     1     1     2     0     0  1.075016912E+02 -2.093065457E+01  3.415575435E+02  3.798437329E+02  1.250000000E+02  0.00000E+00  9.000E+00
      21     1     1     2   511   502 -1.168490952E+02 -7.853647469E+00  2.992051547E+02  3.213084429E+02  5.394796609E-06  0.00000E+00  9.000E+00
#rwgt            1           1   3.6211939136944364E-002           5      212063           0
</event>
<event>
      5   9999  3.79277E-02  3.82147E+01 -1.00000E+00  1.46081E-01
      21    -1     0     0   512   501  0.000000000E+00  0.000000000E+00  5.160516813E+02  5.160516813E+02  0.000000000E+00  0.00000E+00  9.000E+00
      21    -1     0     0   501   502  0.000000000E+00  0.000000000E+00 -1.029424951E+02  1.029424951E+02  0.000000000E+00  0.00000E+00  9.000E+00
      25     1     1     2     0     0 -5.990516384E+01 -1.552236473E+02  2.149689615E+02  2.991983686E+02  1.250000000E+02  0.00000E+00  9.000E+00
      25     1     1     2     0     0  6.682883418E+01  1.176413741E+02  8.982477967E+01  2.049367635E+02  1.250000000E+02  0.00000E+00  9.000E+00
      21     1     1     2   512   502 -6.923670343E+00  3.758227314E+01  1.083154449E+02  1.148590444E+02  1.348699152E-06  0.00000E+00  9.000E+00
#rwgt            1           1   4.6494995042467742E-002           5      212198           0
</event>
<event>
      5   9999  3.79277E-02  2.72168E+01 -1.00000E+00  1.56036E-01
      21    -1     0     0   502   511  0.000000000E+00  0.000000000E+00  8.286975315E+02  8.286975315E+02  0.000000000E+00  0.00000E+00  9.000E+00
      21    -1     0     0   501   502  0.000000000E+00  0.000000000E+00 -7.049408658E+01  7.049408658E+01  0.000000000E+00  0.00000E+00  9.000E+00
      25     1     1     2     0     0 -1.526550845E+02 -1.036882268E+02  2.360302373E+02  3.246384083E+02  1.250000000E+02  0.00000E+00  9.000E+00
      25     1     1     2     0     0  1.506847471E+02  7.654286214E+01  4.331960060E+02  4.815064718E+02  1.250000000E+02  0.00000E+00  9.000E+00
      21     1     1     2   501   511  1.970337477E+00  2.714536465E+01  8.897720156E+01  9.304673799E+01  1.907348633E-06  0.00000E+00  9.000E+00
#rwgt            1           1  0.33226550802745608                5      212276           0
</event>
<event>
      5   9999  3.79277E-02  1.47644E+01 -1.00000E+00  1.78034E-01
      21    -1     0     0   502   501  0.000000000E+00  0.000000000E+00  1.645067738E+02  1.645067738E+02  0.000000000E+00  0.00000E+00  9.000E+00
      21    -1     0     0   501   512  0.000000000E+00  0.000000000E+00 -2.806579429E+02  2.806579429E+02  0.000000000E+00  0.00000E+00  9.000E+00
      25     1     1     2     0     0  1.589637053E+02 -4.677970602E+01 -1.074347251E+02  2.337199620E+02  1.250000000E+02  0.00000E+00  9.000E+00
      25     1     1     2     0     0 -1.443753271E+02  4.450689392E+01 -4.697718012E+00  1.961432314E+02  1.250000000E+02  0.00000E+00  9.000E+00
      21     1     1     2   502   512 -1.458837823E+01  2.272812106E+00 -4.018726048E+00  1.530152323E+01  1.032382731E-07  0.00000E+00  9.000E+00
#rwgt            1           1   3.4576834484563071E-002           5      212585           0
</event>
<event>
      5   9999  3.79277E-02  3.24083E+01 -1.00000E+00  1.50747E-01
      21    -1     0     0   502   501  0.000000000E+00  0.000000000E+00  1.279164697E+02  1.279164697E+02  0.000000000E+00  0.00000E+00  9.000E+00
      21    -1     0     0   511   502  0.000000000E+00  0.000000000E+00 -2.751979497E+02  2.751979497E+02  0.000000000E+00  0.00000E+00  9.000E+00
      25     1     1     2     0     0  1.031695085E+02 -4.922058030E+01 -8.664204956E+01  1.902589229E+02  1.250000000E+02  0.00000E+00  9.000E+00
      25     1     1     2     0     0 -7.799052232E+01  6.962441486E+01 -2.530647947E+01  1.649105776E+02  1.250000000E+02  0.00000E+00  9.000E+00
      21     1     1     2   511   501 -2.517898617E+01 -2.040383456E+01 -3.533295101E+01  4.794491878E+01  0.000000000E+00  0.00000E+00  9.000E+00
#rwgt            1           1   3.9551182090543105E-002           5      212820           0
</event>
<event>
      5   9999  3.79277E-02  2.87756E+01 -1.00000E+00  1.54308E-01
      21    -1     0     0   502   501  0.000000000E+00  0.000000000E+00  6.038742583E+02  6.038742583E+02  0.000000000E+00  0.00000E+00  9.000E+00
      21    -1     0     0   501   512  0.000000000E+00  0.000000000E+00 -1.425883321E+02  1.425883321E+02  0.000000000E+00  0.00000E+00  9.000E+00
      25     1     1     2     0     0  3.178043019E+01 -1.812449367E+02  4.086473453E+02  4.652712925E+02  1.250000000E+02  0.00000E+00  9.000E+00
      25     1     1     2     0     0 -3.569119874E+01  2.097535270E+02  5.307206591E+01  2.524124560E+02  1.250000000E+02  0.00000E+00  9.000E+00
      21     1     1     2   502   512  3.910768555E+00 -2.850859031E+01 -4.334850331E-01  2.877884191E+01  5.406935157E-07  0.00000E+00  9.000E+00
#rwgt            1           1   3.6277361856749457E-002           5      212878           0
</event>
<event>
      5   9999  3.79277E-02  2.43453E+01 -1.00000E+00  1.59619E-01
      21    -1     0     0   502   501  0.000000000E+00  0.000000000E+00  6.961218168E+02  6.961218168E+02  0.000000000E+00  0.00000E+00  9.000E+00
       1    -1     0     0   501     0  0.000000000E+00  0.000000000E+00 -2.759672284E+03  2.759672284E+03  0.000000000E+00  0.00000E+00  9.000E+00
      25     1     1     2     0     0 -1.020749373E+02  1.153313888E+02  3.792245689E+02  4.279683349E+02  1.250000000E+02  0.00000E+00  9.000E+00
      25     1     1     2     0     0  8.431918906E+01 -1.319874910E+02  2.581461701E+02  3.267948417E+02  1.250000000E+02  0.00000E+00  9.000E+00
       1     1     1     2   502     0  1.775574819E+01  1.665610214E+01 -2.700921206E+03  2.701030924E+03  3.051757812E-05  0.00000E+00  9.000E+00
#rwgt            1           1   3.7077136616043838E-002           5      213036           0
</event>
<event>
      5   9999 -3.79277E-02  2.86979E+01 -1.00000E+00  1.54391E-01
      21    -1     0     0   502   511  0.000000000E+00  0.000000000E+00  1.071835420E+03  1.071835420E+03  0.000000000E+00  0.00000E+00  9.000E+00
      21    -1     0     0   501   502  0.000000000E+00  0.000000000E+00 -1.758629352E+02  1.758629352E+02  0.000000000E+00  0.00000E+00  9.000E+00
      25     1     1     2     0     0  1.087354988E+02 -3.622901131E+02  2.636632656E+02  4.777246616E+02  1.250000000E+02  0.00000E+00  9.000E+00
      25     1     1     2     0     0 -8.891020185E+01  3.415410281E+02  4.498605096E+02  5.852817920E+02  1.250000000E+02  0.00000E+00  9.000E+00
      21     1     1     2   501   511 -1.982529693E+01  2.074908493E+01  1.824487099E+02  1.846919020E+02  0.000000000E+00  0.00000E+00  9.000E+00
#rwgt            1           1 -0.45124314425866663                5      213209           0
</event>
<event>
      5   9999  3.79277E-02  8.43009E+01 -1.00000E+00  1.27258E-01
      21    -1     0     0   502   501  0.000000000E+00  0.000000000E+00  1.185739658E+02  1.185739658E+02  0.000000000E+00  0.00000E+00  9.000E+00
      21    -1     0     0   512   502  0.000000000E+00  0.000000000E+00 -1.703027012E+03  1.703027012E+03  0.000000000E+00  0.00000E+00  9.000E+00
      25     1     1     2     0     0 -2.389298641E+02 -1.469974139E+01 -7.689312226E+01  2.807865998E+02  1.250000000E+02  0.00000E+00  9.000E+00
      25     1     1     2     0     0  1.585612405E+02  4.014618172E+01 -7.229339617E+02  7.516727319E+02  1.250000000E+02  0.00000E+00  9.000E+00
      21     1     1     2   512   501  8.036862361E+01 -2.544644032E+01 -7.846259623E+02  7.891416462E+02  1.525878906E-05  0.00000E+00  9.000E+00
#rwgt            1           1   4.6252442723607103E-002           5      213405           0
</event>
<event>
      5   9999  3.79277E-02  2.12734E+01 -1.00000E+00  1.64187E-01
      21    -1     0     0   511   501  0.000000000E+00  0.000000000E+00  6.159949356E+02  6.159949356E+02  0.000000000E+00  0.00000E+00  9.000E+00
      21    -1     0     0   501   502  0.000000000E+00  0.000000000E+00 -5.378902727E+02  5.378902727E+02  0.000000000E+00  0.00000E+00  9.000E+00
      25     1     1     2     0     0  1.201961352E+02  8.776042613E+00 -4.511660723E+02  4.834252317E+02  1.250000000E+02  0.00000E+00  9.000E+00
      25     1     1     2     0     0 -1.091523742E+02  9.406124217E+00  2.778373192E+01  1.685219622E+02  1.250000000E+02  0.00000E+00  9.000E+00
      21     1     1     2   511   502 -1.104376101E+01 -1.818216683E+01  5.014870033E+02  5.019380145E+02  0.000000000E+00  0.00000E+00  9.000E+00
#rwgt            1           1   3.7972373310747876E-002           5      213480           0
</event>
<event>
      5   9999  3.79277E-02  2.85871E+01 -1.00000E+00  1.54509E-01
      21    -1     0     0   502   501  0.000000000E+00  0.000000000E+00  2.261314282E+02  2.261314282E+02  0.000000000E+00  0.00000E+00  9.000E+00
      21    -1     0     0   501   512  0.000000000E+00  0.000000000E+00 -3.145502892E+02  3.145502892E+02  0.000000000E+00  0.00000E+00  9.000E+00
      25     1     1     2     0     0 -2.052190246E+01 -1.009714113E+02 -2.336075277E+01  1.636676485E+02  1.250000000E+02  0.00000E+00  9.000E+00
      25     1     1     2     0     0  4.901890582E+00  1.249137623E+02  1.043012802E+02  2.052589428E+02  1.250000000E+02  0.00000E+00  9.000E+00
      21     1     1     2   502   512  1.562001188E+01 -2.394235098E+01 -1.693593884E+02  1.717551262E+02  2.697398305E-06  0.00000E+00  9.000E+00
#rwgt            1           1   2.5029404446408249E-002           5      213656           0
</event>
<event>
      5   9999  3.79277E-02  3.45693E+01 -1.00000E+00  1.48883E-01
      21    -1     0     0   511   501  0.000000000E+00  0.000000000E+00  8.082716657E+01  8.082716657E+01  0.000000000E+00  0.00000E+00  9.000E+00
      21    -1     0     0   501   502  0.000000000E+00  0.000000000E+00 -8.181661615E+02  8.181661615E+02  0.000000000E+00  0.00000E+00  9.000E+00
      25     1     1     2     0     0 -4.891808236E+01 -1.082090822E+02 -2.657038960E+02  3.167423947E+02  1.250000000E+02  0.00000E+00  9.000E+00
      25     1     1     2     0     0  2.794049416E+01  1.356858706E+02 -5.024270909E+02  5.359564426E+02  1.250000000E+02  0.00000E+00  9.000E+00
      21     1     1     2   511   502  2.097758820E+01 -2.747678844E+01  3.079199195E+01  4.629449079E+01  1.011524364E-06  0.00000E+00  9.000E+00
#rwgt            2          11   1.0878164745733567E-003           5      213766           0
</event>
<event>
      5   9999  3.79277E-02  3.22566E+01 -1.00000E+00  1.50884E-01
      21    -1     0     0   502   501  0.000000000E+00  0.000000000E+00  3.427318482E+02  3.427318482E+02  0.000000000E+00  0.00000E+00  9.000E+00
      21    -1     0     0   501   512  0.000000000E+00  0.000000000E+00 -1.827642606E+02  1.827642606E+02  0.000000000E+00  0.00000E+00  9.000E+00
      25     1     1     2     0     0 -4.365369858E+01 -7.545279530E+00  2.323854425E+02  2.675641429E+02  1.250000000E+02  0.00000E+00  9.000E+00
      25     1     1     2     0     0  5.985907232E+01  3.543564701E+01  3.374406754E+01  1.469777388E+02  1.250000000E+02  0.00000E+00  9.000E+00
      21     1     1     2   502   512 -1.620537374E+01 -2.789036748E+01 -1.061619225E+02  1.109542271E+02  1.348699152E-06  0.00000E+00  9.000E+00
#rwgt            1           1   5.2833795221868624E-002           5      213921           0
</event>
<event>
      5   9999  3.79277E-02  9.88690E+01 -1.00000E+00  1.24051E-01
      21    -1     0     0   502   501  0.000000000E+00  0.000000000E+00  6.569810734E+01  6.569810734E+01  0.000000000E+00  0.00000E+00  9.000E+00
      21    -1     0     0   511   502  0.000000000E+00  0.000000000E+00 -8.836614343E+02  8.836614343E+02  0.000000000E+00  0.00000E+00  9.000E+00
      25     1     1     2     0     0 -1.023409613E+02  3.847062125E+00 -1.783089146E+02  2.406398581E+02  1.250000000E+02  0.00000E+00  9.000E+00
      25     1     1     2     0     0  1.307696622E+02 -9.854074769E+01 -4.466132142E+02  4.918326409E+02  1.250000000E+02  0.00000E+00  9.000E+00
      21     1     1     2   511   501 -2.842870089E+01  9.469368556E+01 -1.930411981E+02  2.168870427E+02  3.814697266E-06  0.00000E+00  9.000E+00
#rwgt            1           1   4.6727531157762139E-002           5      214016           0
</event>
<event>
      5   9999  3.79277E-02  4.43193E+01 -1.00000E+00  1.42131E-01
      21    -1     0     0   502   512  0.000000000E+00  0.000000000E+00  1.082851101E+03  1.082851101E+03  0.000000000E+00  0.00000E+00  9.000E+00
      21    -1     0     0   501   502  0.000000000E+00  0.000000000E+00 -2.042193528E+02  2.042193528E+02  0.000000000E+00  0.00000E+00  9.000E+00
      25     1     1     2     0     0  1.021200935E+02  2.456644549E+01 -1.104620000E+02  1.971265512E+02  1.250000000E+02  0.00000E+00  9.000E+00
      25     1     1     2     0     0 -6.732058635E+01  2.878005419E+00  5.112320075E+01  1.509268893E+02  1.250000000E+02  0.00000E+00  9.000E+00
      21     1     1     2   501   512 -3.479950713E+01 -2.744445091E+01  9.379705469E+02  9.390170129E+02  0.000000000E+00  0.00000E+00  9.000E+00
#rwgt            1           1   3.5259341960986422E-002           5      214071           0
</event>
<event>
      5   9999  3.79277E-02  7.70144E+01 -1.00000E+00  1.29154E-01
      21    -1     0     0   502   501  0.000000000E+00  0.000000000E+00  1.248063179E+02  1.248063179E+02  0.000000000E+00  0.00000E+00  9.000E+00
       2    -1     0     0   501     0  0.000000000E+00  0.000000000E+00 -1.957546275E+03  1.957546275E+03  0.000000000E+00  0.00000E+00  9.000E+00
      25     1     1     2     0     0 -5.808384845E+01 -1.538820632E+02 -7.259963160E+02  7.548172452E+02  1.250000000E+02  0.00000E+00  9.000E+00
      25     1     1     2     0     0 -1.568793702E+01  1.759940728E+02  1.675795566E+00  2.164436031E+02  1.250000000E+02  0.00000E+00  9.000E+00
       2     1     1     2   502     0  7.377178547E+01 -2.211200962E+01 -1.108419437E+03  1.111091744E+03  2.157918644E-05  0.00000E+00  9.000E+00
#rwgt            1           1   4.3728796349032963E-002           5      214264           0
</event>
<event>
      5   9999  3.79277E-02  8.37550E+01 -1.00000E+00  1.27393E-01
      21    -1     0     0   502   501  0.000000000E+00  0.000000000E+00  4.564007996E+02  4.564007996E+02  0.000000000E+00  0.00000E+00  9.000E+00
      21    -1     0     0   501   511  0.000000000E+00  0.000000000E+00 -5.237813228E+02  5.237813228E+02  0.000000000E+00  0.00000E+00  9.000E+00
      25     1     1     2     0     0  1.324837938E+02 -4.999656041E+01  1.283706628E+02  2.283760906E+02  1.250000000E+02  0.00000E+00  9.000E+00
      25     1     1     2     0     0 -2.130330951E+02  2.704621938E+01  2.174584358E+02  3.301935325E+02  1.250000000E+02  0.00000E+00  9.000E+00
      21     1     1     2   502   511  8.054930124E+01  2.295034103E+01 -4.132096218E+02  4.216124993E+02  7.629394531E-06  0.00000E+00  9.000E+00
#rwgt            1           1   4.1361277591243438E-002           5      214390           0
</event>
<event>
      5   9999  3.79277E-02  5.35528E+01 -1.00000E+00  1.37396E-01
      21    -1     0     0   502   501  0.000000000E+00  0.000000000E+00  1.129708097E+03  1.129708097E+03  0.000000000E+00  0.00000E+00  9.000E+00
      21    -1     0     0   512   502  0.000000000E+00  0.000000000E+00 -4.588105109E+01  4.588105109E+01  0.000000000E+00  0.00000E+00  9.000E+00
      25     1     1     2     0     0 -1.311489039E+02 -1.123319135E+01  3.668480463E+02  4.093027103E+02  1.250000000E+02  0.00000E+00  9.000E+00
      25     1     1     2     0     0  1.578433972E+02  5.765849895E+01  6.324041068E+02  6.661824036E+02  1.250000000E+02  0.00000E+00  9.000E+00
      21     1     1     2   512   501 -2.669449333E+01 -4.642530760E+01  8.457489251E+01  1.001040339E+02  0.000000000E+00  0.00000E+00  9.000E+00
#rwgt            1           1   3.9342899947419539E-002           5      214540           0
</event>
<event>
      5   9999  3.79277E-02  4.81179E+01 -1.00000E+00  1.40033E-01
      21    -1     0     0   502   501  0.000000000E+00  0.000000000E+00  8.046904206E+01  8.046904206E+01  0.000000000E+00  0.00000E+00  9.000E+00
      21    -1     0     0   511   502  0.000000000E+00  0.000000000E+00 -1.542970135E+03  1.542970135E+03  0.000000000E+00  0.00000E+00  9.000E+00
      25     1     1     2     0     0  4.073152413E+01 -2.185522349E+02 -3.926589012E+02  4.682201930E+02  1.250000000E+02  0.00000E+00  9.000E+00
      25     1     1     2     0     0  5.839379195E+00  2.306554567E+02 -3.693652420E+02  4.530912933E+02  1.250000000E+02  0.00000E+00  9.000E+00
      21     1     1     2   511   501 -4.657090333E+01 -1.210322174E+01 -7.004769501E+02  7.021276911E+02  7.629394531E-06  0.00000E+00  9.000E+00
#rwgt            1           1   2.4369323389790271E-002           5      214638           0
</event>
<event>
      5   9999  3.79277E-02  4.19850E+01 -1.00000E+00  1.43548E-01
      21    -1     0     0   512   501  0.000000000E+00  0.000000000E+00  5.346818798E+01  5.346818798E+01  0.000000000E+00  0.00000E+00  9.000E+00
      21    -1     0     0   501   502  0.000000000E+00  0.000000000E+00 -7.171683842E+02  7.171683842E+02  0.000000000E+00  0.00000E+00  9.000E+00
      25     1     1     2     0     0 -1.793508716E+01 -6.397715597E+01 -9.999649573E+01  1.733177515E+02  1.250000000E+02  0.00000E+00  9.000E+00
      25     1     1     2     0     0 -2.321835501E+01  5.566250438E+01 -5.132346208E+02  5.316692415E+02  1.250000000E+02  0.00000E+00  9.000E+00
      21     1     1     2   512   502  4.115344216E+01  8.314651596E+00 -5.046907970E+01  6.564957912E+01  6.743495762E-07  0.00000E+00  9.000E+00
#rwgt            1           1   4.6366102114575265E-002           5      214818           0
</event>
<event>
      5   9999  3.79277E-02  1.23738E+02 -1.00000E+00  1.19806E-01
      21    -1     0     0   502   511  0.000000000E+00  0.000000000E+00  2.914957875E+02  2.914957875E+02  0.000000000E+00  0.00000E+00  9.000E+00
      21    -1     0     0   501   502  0.000000000E+00  0.000000000E+00 -4.324324376E+02  4.324324376E+02  0.000000000E+00  0.00000E+00  9.000E+00
      25     1     1     2     0     0  1.042762228E+02 -1.292284574E+02 -1.575982990E+02  2.608366322E+02  1.250000000E+02  0.00000E+00  9.000E+00
      25     1     1     2     0     0 -2.259914985E+02  1.069488370E+02 -9.619659842E+01  2.956162997E+02  1.250000000E+02  0.00000E+00  9.000E+00
      21     1     1     2   501   511  1.217152757E+02  2.227962041E+01  1.128582474E+02  1.674752932E+02  0.000000000E+00  0.00000E+00  9.000E+00
#rwgt            1           1   2.1228976861668591E-002           5      214925           0
</event>
<event>
      5   9999  3.79277E-02  2.66468E+01 -1.00000E+00  1.56703E-01
      21    -1     0     0   502   501  0.000000000E+00  0.000000000E+00  8.967653448E+01  8.967653448E+01  0.000000000E+00  0.00000E+00  9.000E+00
       1    -1     0     0   501     0  0.000000000E+00  0.000000000E+00 -7.964019168E+02  7.964019168E+02  0.000000000E+00  0.00000E+00  9.000E+00
      25     1     1     2     0     0  1.339481255E+02 -7.895907500E+01 -1.284047694E+02  2.372539160E+02  1.250000000E+02  0.00000E+00  9.000E+00
      25     1     1     2     0     0 -1.368028487E+02  1.054524874E+02 -2.935559177E+02  3.628158257E+02  1.250000000E+02  0.00000E+00  9.000E+00
       1     1     1     2   502     0  2.854723232E+00 -2.649341244E+01 -2.847646952E+02  2.860087097E+02  3.814697266E-06  0.00000E+00  9.000E+00
#rwgt            1           1   3.7201855681444768E-002           5      215029           0
</event>
<event>
      5   9999  3.79277E-02  1.30234E+01 -1.00000E+00  1.83367E-01
      21    -1     0     0   511   501  0.000000000E+00  0.000000000E+00  5.301355286E+02  5.301355286E+02  0.000000000E+00  0.00000E+00  9.000E+00
      21    -1     0     0   501   502  0.000000000E+00  0.000000000E+00 -2.495960762E+02  2.495960762E+02  0.000000000E+00  0.00000E+00  9.000E+00
      25     1     1     2     0     0  7.234671562E+01  3.134737066E+02  9.359696785E+01  3.576104086E+02  1.250000000E+02  0.00000E+00  9.000E+00
      25     1     1     2     0     0 -6.612964114E+01 -3.249173270E+02  1.533939628E+02  3.861335347E+02  1.250000000E+02  0.00000E+00  9.000E+00
      21     1     1     2   511   502 -6.217074477E+00  1.144362037E+01  3.354852175E+01  3.598766141E+01  8.259061849E-07  0.00000E+00  9.000E+00
#rwgt            1           1   3.7525234067953508E-002           5      215151           0
</event>
<event>
      5   9999  3.79277E-02  2.76959E+02 -1.00000E+00  1.06732E-01
      21    -1     0     0   502   501  0.000000000E+00  0.000000000E+00  1.482724023E+02  1.482724023E+02  0.000000000E+00  0.00000E+00  9.000E+00
       2    -1     0     0   501     0  0.000000000E+00  0.000000000E+00 -2.210300607E+03  2.210300607E+03  0.000000000E+00  0.00000E+00  9.000E+00
      25     1     1     2     0     0 -6.740656589E+01  3.210443909E+02 -4.473788405E+02  5.686703553E+02  1.250000000E+02  0.00000E+00  9.000E+00
      25     1     1     2     0     0 -2.094347250E+02 -3.291188273E+02 -5.266673343E+02  6.672222924E+02  1.250000000E+02  0.00000E+00  9.000E+00
       2     1     1     2   502     0  2.768412908E+02  8.074436415E+00 -1.087982030E+03  1.122680361E+03  0.000000000E+00  0.00000E+00  9.000E+00
#rwgt            2          13   7.7991130810378922E-004           5      215356           0
</event>
<event>
      5   9999  3.79277E-02  1.33126E+02 -1.00000E+00  1.18485E-01
      21    -1     0     0   502   511  0.000000000E+00  0.000000000E+00  8.295622512E+02  8.295622512E+02  0.000000000E+00  0.00000E+00  9.000E+00
      21    -1     0     0   501   502  0.000000000E+00  0.000000000E+00 -5.563316985E+02  5.563316985E+02  0.000000000E+00  0.00000E+00  9.000E+00
      25     1     1     2     0     0  1.474434686E+02  6.121443276E+01 -2.823954122E+02  3.476477413E+02  1.250000000E+02  0.00000E+00  9.000E+00
      25     1     1     2     0     0 -1.367817724E+02  7.148347310E+01 -1.935591456E+02  2.773252297E+02  1.250000000E+02  0.00000E+00  9.000E+00
      21     1     1     2   501   511 -1.066169621E+01 -1.326979059E+02  7.491851105E+02  7.609209787E+02  1.078959322E-05  0.00000E+00  9.000E+00
#rwgt            1           1   3.8241040105218060E-002           5      215435           0
</event>
<event>
      5   9999  3.79277E-02  6.83000E+01 -1.00000E+00  1.31764E-01
      21    -1     0     0   502   501  0.000000000E+00  0.000000000E+00  4.823226920E+02  4.823226920E+02  0.000000000E+00  0.00000E+00  9.000E+00
      21    -1     0     0   501   512  0.000000000E+00  0.000000000E+00 -3.100356633E+02  3.100356633E+02  0.000000000E+00  0.00000E+00  9.000E+00
      25     1     1     2     0     0 -3.464266131E+02  4.567240157E+01  6.092494989E+01  3.760774070E+02  1.250000000E+02  0.00000E+00  9.000E+00
      25     1     1     2     0     0  2.856452321E+02 -7.682554817E+01  1.284741659E+02  3.458698812E+02  1.250000000E+02  0.00000E+00  9.000E+00
      21     1     1     2   502   512  6.078138105E+01  3.115314660E+01 -1.711208710E+01  7.041106696E+01  1.215700987E-06  0.00000E+00  9.000E+00
#rwgt            1           1   3.9480084768573218E-002           5      215587           0
</event>
<event>
      5   9999  3.79277E-02  5.33406E+00 -1.00000E+00  2.33711E-01
      21    -1     0     0   502   501  0.000000000E+00  0.000000000E+00  3.390369413E+02  3.390369413E+02  0.000000000E+00  0.00000E+00  9.000E+00
      21    -1     0     0   511   502  0.000000000E+00  0.000000000E+00 -3.653874045E+02  3.653874045E+02  0.000000000E+00  0.00000E+00  9.000E+00
      25     1     1     2     0     0  1.257845182E+01 -2.986805692E+02  1.068152320E+02  3.411785363E+02  1.250000000E+02  0.00000E+00  9.000E+00
      25     1     1     2     0     0 -8.458809946E+00  3.020688916E+02 -1.188145418E+02  3.479354280E+02  1.250000000E+02  0.00000E+00  9.000E+00
      21     1     1     2   511   501 -4.119641875E+00 -3.388322419E+00 -1.435115334E+01  1.531038145E+01  1.685873940E-07  0.00000E+00  9.000E+00
#rwgt            1           1   6.4153670766440005E-002           5      215933           0
</event>
<event>
      5   9999  3.79277E-02  8.35391E+01 -1.00000E+00  1.27446E-01
      21    -1     0     0   502   501  0.000000000E+00  0.000000000E+00  1.269127821E+03  1.269127821E+03  0.000000000E+00  0.00000E+00  9.000E+00
       2    -1     0     0   501     0  0.000000000E+00  0.000000000E+00 -3.283038592E+03  3.283038592E+03  0.000000000E+00  0.00000E+00  9.000E+00
      25     1     1     2     0     0  2.234881201E+02  8.664824689E+01  1.053997744E+03  1.088113552E+03  1.250000000E+02  0.00000E+00  9.000E+00
      25     1     1     2     0     0 -1.420157108E+02 -6.818136763E+01  1.463444920E+02  2.487144374E+02  1.250000000E+02  0.00000E+00  9.000E+00
       2     1     1     2   502     0 -8.147240925E+01 -1.846687926E+01 -3.214253007E+03  3.215338423E+03  0.000000000E+00  0.00000E+00  9.000E+00
#rwgt            1           1   4.0270547497308115E-002           5      216438           0
</event>
<event>
      5   9999  3.79277E-02  1.04501E+02 -1.00000E+00  1.22974E-01
      21    -1     0     0   502   501  0.000000000E+00  0.000000000E+00  4.055919927E+02  4.055919927E+02  0.000000000E+00  0.00000E+00  9.000E+00
      21    -1     0     0   501   511  0.000000000E+00  0.000000000E+00 -2.640626159E+02  2.640626159E+02  0.000000000E+00  0.00000E+00  9.000E+00
      25     1     1     2     0     0 -1.426376019E+02 -6.539870758E+01  2.169610868E+02  2.954988826E+02  1.250000000E+02  0.00000E+00  9.000E+00
      25     1     1     2     0     0  7.799967884E+01 -1.671278956E+01  9.365417989E+01  1.753835016E+02  1.250000000E+02  0.00000E+00  9.000E+00
      21     1     1     2   502   511  6.463792304E+01  8.211149714E+01 -1.690858898E+02  1.987722244E+02  1.907348633E-06  0.00000E+00  9.000E+00
#rwgt            1           1   6.9491366316371359E-002           5      216554           0
</event>
<event>
      5   9999  3.79277E-02  1.52431E+02 -1.00000E+00  1.16118E-01
      21    -1     0     0   502   512  0.000000000E+00  0.000000000E+00  6.454744430E+02  6.454744430E+02  0.000000000E+00  0.00000E+00  9.000E+00
      21    -1     0     0   501   502  0.000000000E+00  0.000000000E+00 -3.711876011E+02  3.711876011E+02  0.000000000E+00  0.00000E+00  9.000E+00
      25     1     1     2     0     0 -4.142009952E+01 -1.220032265E+02  1.366228644E+02  2.255908221E+02  1.250000000E+02  0.00000E+00  9.000E+00
      25     1     1     2     0     0  1.104122542E+02 -1.392028454E+01 -2.912308789E+02  3.358944254E+02  1.250000000E+02  0.00000E+00  9.000E+00
      21     1     1     2   501   512 -6.899215470E+01  1.359235111E+02  4.288948564E+02  4.551767965E+02  5.394796609E-06  0.00000E+00  9.000E+00
#rwgt            2          11   2.0409119333740151E-003           5      216639           0
</event>
<event>
      5   9999 -3.79277E-02  5.04473E+01 -1.00000E+00  1.38855E-01
      21    -1     0     0   502   501  0.000000000E+00  0.000000000E+00  2.657264589E+03  2.657264589E+03  0.000000000E+00  0.00000E+00  9.000E+00
      21    -1     0     0   511   502  0.000000000E+00  0.000000000E+00 -5.847073593E+01  5.847073593E+01  0.000000000E+00  0.00000E+00  9.000E+00
      25     1     1     2     0     0  9.134474998E+01 -1.271268442E+02  7.909785948E+02  8.159517359E+02  1.250000000E+02  0.00000E+00  9.000E+00
      25     1     1     2     0     0 -1.273833836E+02  1.624276178E+02  1.829157753E+03  1.845007410E+03  1.250000000E+02  0.00000E+00  9.000E+00
      21     1     1     2   511   501  3.603863365E+01 -3.530077356E+01 -2.134249464E+01  5.477617919E+01  1.526623782E-06  0.00000E+00  9.000E+00
#rwgt            1           1  -5.3868720665101191E-002           5      216674           0
</event>
<event>
      5   9999  3.79277E-02  3.63841E+01 -1.00000E+00  1.47439E-01
      21    -1     0     0   502   501  0.000000000E+00  0.000000000E+00  1.790410268E+02  1.790410268E+02  0.000000000E+00  0.00000E+00  9.000E+00
      21    -1     0     0   501   512  0.000000000E+00  0.000000000E+00 -5.493075001E+02  5.493075001E+02  0.000000000E+00  0.00000E+00  9.000E+00
      25     1     1     2     0     0  1.493494311E+02  1.482664061E+02 -8.615659958E+01  2.594920796E+02  1.250000000E+02  0.00000E+00  9.000E+00
      25     1     1     2     0     0 -1.223785837E+02 -1.238455314E+02 -3.508423232E+01  2.171868706E+02  1.250000000E+02  0.00000E+00  9.000E+00
      21     1     1     2   502   512 -2.697084735E+01 -2.442087470E+01 -2.490256414E+02  2.516695766E+02  2.697398305E-06  0.00000E+00  9.000E+00
#rwgt            1           1   4.1980869336499999E-002           5      216762           0
</event>
<event>
      5   9999  3.79277E-02  1.83745E+01 -1.00000E+00  1.69465E-01
      21    -1     0     0   511   501  0.000000000E+00  0.000000000E+00  6.869575346E+02  6.869575346E+02  0.000000000E+00  0.00000E+00  9.000E+00
      21    -1     0     0   501   502  0.000000000E+00  0.000000000E+00 -9.994531880E+01  9.994531880E+01  0.000000000E+00  0.00000E+00  9.000E+00
      25     1     1     2     0     0 -7.565392094E+01  6.048495719E+01  4.981144971E+02  5.226136222E+02  1.250000000E+02  0.00000E+00  9.000E+00
      25     1     1     2     0     0  5.852171316E+01 -5.384335657E+01 -2.384565064E+01  1.500583654E+02  1.250000000E+02  0.00000E+00  9.000E+00
      21     1     1     2   511   502  1.713220778E+01 -6.641600617E+00  1.127433693E+02  1.142308659E+02  1.907348633E-06  0.00000E+00  9.000E+00
#rwgt            1           1   4.8245234297038253E-002           5      216952           0
</event>
<event>
      5   9999  3.79277E-02  1.78744E+01 -1.00000E+00  1.70499E-01
      21    -1     0     0   502   501  0.000000000E+00  0.000000000E+00  5.184521940E+02  5.184521940E+02  0.000000000E+00  0.00000E+00  9.000E+00
      21    -1     0     0   512   502  0.000000000E+00  0.000000000E+00 -5.473916223E+01  5.473916223E+01  0.000000000E+00  0.00000E+00  9.000E+00
      25     1     1     2     0     0 -1.304357457E+01 -3.465941620E+01  1.008094214E+02  1.647997252E+02  1.250000000E+02  0.00000E+00  9.000E+00
      25     1     1     2     0     0  3.084093171E+01  3.300196456E+01  3.667649992E+02  3.901049312E+02  1.250000000E+02  0.00000E+00  9.000E+00
      21     1     1     2   512   501 -1.779735714E+01  1.657451641E+00 -3.861388840E+00  1.828669984E+01  2.064765462E-07  0.00000E+00  9.000E+00
#rwgt            1           1  0.10051812999481441                5      217154           0
</event>
<event>
      5   9999  3.79277E-02  2.83886E+01 -1.00000E+00  1.54724E-01
      21    -1     0     0   502   501  0.000000000E+00  0.000000000E+00  9.080702272E+02  9.080702272E+02  0.000000000E+00  0.00000E+00  9.000E+00
      21    -1     0     0   501   511  0.000000000E+00  0.000000000E+00 -3.780067250E+02  3.780067250E+02  0.000000000E+00  0.00000E+00  9.000E+00
      25     1     1     2     0     0 -8.255359746E+01  4.010585777E+00  4.783982311E+02  5.013193082E+02  1.250000000E+02  0.00000E+00  9.000E+00
      25     1     1     2     0     0  6.457669189E+01  1.796085024E+01  4.056006951E+02  4.296855421E+02  1.250000000E+02  0.00000E+00  9.000E+00
      21     1     1     2   502   511  1.797690557E+01 -2.197143602E+01 -3.539354240E+02  3.550721018E+02  3.814697266E-06  0.00000E+00  9.000E+00
#rwgt            1           1   7.4489425130729925E-002           5      217678           0
</event>
<event>
      5   9999  3.79277E-02  5.04783E+01 -1.00000E+00  1.38840E-01
      21    -1     0     0   512   501  0.000000000E+00  0.000000000E+00  7.997310831E+02  7.997310831E+02  0.000000000E+00  0.00000E+00  9.000E+00
      21    -1     0     0   501   502  0.000000000E+00  0.000000000E+00 -6.278035093E+01  6.278035093E+01  0.000000000E+00  0.00000E+00  9.000E+00
      25     1     1     2     0     0  6.170304198E+01 -1.234580863E+02  4.133057141E+02  4.533164212E+02  1.250000000E+02  0.00000E+00  9.000E+00
      25     1     1     2     0     0 -4.460204370E+01  7.596482767E+01  1.067299617E+02  1.864839995E+02  1.250000000E+02  0.00000E+00  9.000E+00
      21     1     1     2   512   502 -1.710099828E+01  4.749325860E+01  2.169150564E+02  2.227110133E+02  0.000000000E+00  0.00000E+00  9.000E+00
#rwgt            1           1   4.1174855531222965E-002           5      217846           0
</event>
<event>
      5   9999  3.79277E-02  2.34280E+01 -1.00000E+00  1.60893E-01
      21    -1     0     0   502   501  0.000000000E+00  0.000000000E+00  1.052625676E+03  1.052625676E+03  0.000000000E+00  0.00000E+00  9.000E+00
      21    -1     0     0   501   511  0.000000000E+00  0.000000000E+00 -3.822439162E+01  3.822439162E+01  0.000000000E+00  0.00000E+00  9.000E+00
      25     1     1     2     0     0 -8.736798855E+01  9.437275533E+01  6.054623695E+02  6.314658053E+02  1.250000000E+02  0.00000E+00  9.000E+00
      25     1     1     2     0     0  6.557044122E+01 -1.029597323E+02  3.955086660E+02  4.323798031E+02  1.250000000E+02  0.00000E+00  9.000E+00
      21     1     1     2   502   511  2.179754734E+01  8.586976966E+00  1.343024920E+01  2.700445958E+01  5.591411304E-07  0.00000E+00  9.000E+00
#rwgt            1           1   4.3467759980045033E-002           5      217930           0
</event>
<event>
      5   9999  3.79277E-02  4.13214E+01 -1.00000E+00  1.43970E-01
      21    -1     0     0   502   512  0.000000000E+00  0.000000000E+00  1.468788610E+03  1.468788610E+03  0.000000000E+00  0.00000E+00  9.000E+00
      21    -1     0     0   501   502  0.000000000E+00  0.000000000E+00 -7.183517715E+01  7.183517715E+01  0.000000000E+00  0.00000E+00  9.000E+00
      25     1     1     2     0     0 -1.688631982E+02 -1.496667413E+02  4.333129956E+02  5.042817321E+02  1.250000000E+02  0.00000E+00  9.000E+00
      25     1     1     2     0     0  1.307321446E+02  1.655879377E+02  3.865428607E+02  4.577670171E+02  1.250000000E+02  0.00000E+00  9.000E+00
      21     1     1     2   501   512  3.813105366E+01 -1.592119640E+01  5.770975763E+02  5.785750378E+02  7.629394531E-06  0.00000E+00  9.000E+00
#rwgt            1           1   3.8132620092809370E-002           5      218006           0
</event>
<event>
      5   9999  3.79277E-02  2.83068E+01 -1.00000E+00  1.54813E-01
      21    -1     0     0   502   501  0.000000000E+00  0.000000000E+00  1.575857857E+02  1.575857857E+02  0.000000000E+00  0.00000E+00  9.000E+00
      21    -1     0     0   501   511  0.000000000E+00  0.000000000E+00 -1.042790331E+03  1.042790331E+03  0.000000000E+00  0.00000E+00  9.000E+00
      25     1     1     2     0     0 -1.062548322E+02  1.789621511E+02 -8.773798153E+01  2.581482022E+02  1.250000000E+02  0.00000E+00  9.000E+00
      25     1     1     2     0     0  1.342006275E+02 -1.744554651E+02 -1.501720107E+02  2.943147134E+02  1.250000000E+02  0.00000E+00  9.000E+00
      21     1     1     2   502   511 -2.794579532E+01 -4.506686022E+00 -6.472945533E+02  6.479132014E+02  7.629394531E-06  0.00000E+00  9.000E+00
#rwgt            1           1   2.6965880106917643E-002           5      218190           0
</event>
<event>
      5   9999  3.79277E-02  3.25409E+01 -1.00000E+00  1.50627E-01
      21    -1     0     0   512   501  0.000000000E+00  0.000000000E+00  1.249788243E+02  1.249788243E+02  0.000000000E+00  0.00000E+00  9.000E+00
      21    -1     0     0   501   502  0.000000000E+00  0.000000000E+00 -4.685624605E+02  4.685624605E+02  0.000000000E+00  0.00000E+00  9.000E+00
      25     1     1     2     0     0 -5.937749197E+01 -4.987722368E+01 -9.569969248E+00  1.474110183E+02  1.250000000E+02  0.00000E+00  9.000E+00
      25     1     1     2     0     0  8.556199608E+01  6.919768471E+01 -3.649994521E+02  4.011966784E+02  1.250000000E+02  0.00000E+00  9.000E+00
      21     1     1     2   512   502 -2.618450411E+01 -1.932046103E+01  3.098578511E+01  4.493358820E+01  1.118282261E-06  0.00000E+00  9.000E+00
#rwgt            1           1   3.9739014429492507E-002           5      218302           0
</event>
<event>
      5   9999  3.79277E-02  3.18340E+01 -1.00000E+00  1.51271E-01
      21    -1     0     0   502   511  0.000000000E+00  0.000000000E+00  4.598830997E+02  4.598830997E+02  0.000000000E+00  0.00000E+00  9.000E+00
      21    -1     0     0   501   502  0.000000000E+00  0.000000000E+00 -3.805529533E+02  3.805529533E+02  0.000000000E+00  0.00000E+00  9.000E+00
      25     1     1     2     0     0 -2.539018962E+02 -1.611824584E+02  1.550873203E+02  3.607257057E+02  1.250000000E+02  0.00000E+00  9.000E+00
      25     1     1     2     0     0  2.540531850E+02  1.293487860E+02 -1.875860603E+02  3.634386596E+02  1.250000000E+02  0.00000E+00  9.000E+00
      21     1     1     2   501   511 -1.512887647E-01  3.183367235E+01  1.118288863E+02  1.162716878E+02  1.348699152E-06  0.00000E+00  9.000E+00
#rwgt            1           1   3.8380244884839827E-002           5      218434           0
</event>
<event>
      5   9999  3.79277E-02  3.50686E+01 -1.00000E+00  1.48475E-01
      21    -1     0     0   502   501  0.000000000E+00  0.000000000E+00  2.599586460E+02  2.599586460E+02  0.000000000E+00  0.00000E+00  9.000E+00
      21    -1     0     0   512   502  0.000000000E+00  0.000000000E+00 -2.921308849E+02  2.921308849E+02  0.000000000E+00  0.00000E+00  9.000E+00
      25     1     1     2     0     0 -8.235704134E+01 -6.532748579E+01  1.780950059E+02  2.416468369E+02  1.250000000E+02  0.00000E+00  9.000E+00
      25     1     1     2     0     0  1.171795383E+02  6.118021134E+01 -2.064392143E+02  2.751657894E+02  1.250000000E+02  0.00000E+00  9.000E+00
      21     1     1     2   512   501 -3.482249698E+01  4.147274453E+00 -3.828030436E+00  3.527690461E+01  3.345302391E-07  0.00000E+00  9.000E+00
#rwgt            1           1   3.8397668571526260E-002           5      218628           0
</event>
<event>
      5   9999  3.79277E-02  4.32154E+01 -1.00000E+00  1.42788E-01
      21    -1     0     0   502   511  0.000000000E+00  0.000000000E+00  1.215736724E+02  1.215736724E+02  0.000000000E+00  0.00000E+00  9.000E+00
      21    -1     0     0   501   502  0.000000000E+00  0.000000000E+00 -2.005885674E+03  2.005885674E+03  0.000000000E+00  0.00000E+00  9.000E+00
      25     1     1     2     0     0 -1.688189264E+02  3.856061433E+02 -5.184074308E+02  6.793844214E+02  1.250000000E+02  0.00000E+00  9.000E+00
      25     1     1     2     0     0  1.256326944E+02 -3.840173039E+02 -1.314784798E+03  1.381136100E+03  1.250000000E+02  0.00000E+00  9.000E+00
      21     1     1     2   501   511  4.318623202E+01 -1.588839393E+00 -5.111977327E+01  6.693882480E+01  1.168007728E-06  0.00000E+00  9.000E+00
#rwgt            1           1  0.12799118748976140                5      218915           0
</event>
<event>
      5   9999  3.79277E-02  2.93849E+01 -1.00000E+00  1.53667E-01
      21    -1     0     0   502   512  0.000000000E+00  0.000000000E+00  4.285885231E+02  4.285885231E+02  0.000000000E+00  0.00000E+00  9.000E+00
      21    -1     0     0   501   502  0.000000000E+00  0.000000000E+00 -3.406254138E+02  3.406254138E+02  0.000000000E+00  0.00000E+00  9.000E+00
      25     1     1     2     0     0  1.430281165E+02  1.194044276E+02 -2.364690773E+01  2.256072598E+02  1.250000000E+02  0.00000E+00  9.000E+00
      25     1     1     2     0     0 -1.659258325E+02 -1.378208737E+02 -1.429359318E+02  2.873702415E+02  1.250000000E+02  0.00000E+00  9.000E+00
      21     1     1     2   501   512  2.289771602E+01  1.841644609E+01  2.545459488E+02  2.562364356E+02  3.814697266E-06  0.00000E+00  9.000E+00
#rwgt            1           1   4.0018084530244608E-002           5      219079           0
</event>
<event>
      5   9999  3.79277E-02  8.07502E+00 -1.00000E+00  2.07142E-01
      21    -1     0     0   502   511  0.000000000E+00  0.000000000E+00  7.012864529E+02  7.012864529E+02  0.000000000E+00  0.00000E+00  9.000E+00
      21    -1     0     0   501   502  0.000000000E+00  0.000000000E+00 -5.594118746E+01  5.594118746E+01  0.000000000E+00  0.00000E+00  9.000E+00
      25     1     1     2     0     0 -1.154029988E+02 -9.408631108E+01  2.942145350E+02  3.526432739E+02  1.250000000E+02  0.00000E+00  9.000E+00
      25     1     1     2     0     0  1.085040658E+02  9.828281787E+01  3.312175708E+02  3.830962330E+02  1.250000000E+02  0.00000E+00  9.000E+00
      21     1     1     2   501   511  6.898933046E+00 -4.196506792E+00  1.991315976E+01  2.148813343E+01  3.371747881E-07  0.00000E+00  9.000E+00
#rwgt            1           1  0.14813859175113284                5      219302           0
</event>
<event>
      5   9999  3.79277E-02  2.25436E+01 -1.00000E+00  1.62190E-01
      21    -1     0     0   512   501  0.000000000E+00  0.000000000E+00  5.531917124E+02  5.531917124E+02  0.000000000E+00  0.00000E+00  9.000E+00
      21    -1     0     0   501   502  0.000000000E+00  0.000000000E+00 -2.813806553E+02  2.813806553E+02  0.000000000E+00  0.00000E+00  9.000E+00
      25     1     1     2     0     0 -8.938422344E+01  1.129652288E+02 -1.605716151E+02  2.493169186E+02  1.250000000E+02  0.00000E+00  9.000E+00
      25     1     1     2     0     0  1.048270371E+02 -1.293888413E+02  6.635818959E+01  2.185373865E+02  1.250000000E+02  0.00000E+00  9.000E+00
      21     1     1     2   512   502 -1.544281363E+01  1.642361246E+01  3.660244827E+02  3.667180626E+02  0.000000000E+00  0.00000E+00  9.000E+00
#rwgt            1           1   5.7985705594084502E-002           5      219599           0
</event>
<event>
      5   9999  3.79277E-02  7.83312E+01 -1.00000E+00  1.28794E-01
      21    -1     0     0   502   501  0.000000000E+00  0.000000000E+00  8.593209171E+02  8.593209171E+02  0.000000000E+00  0.00000E+00  9.000E+00
      21    -1     0     0   501   511  0.000000000E+00  0.000000000E+00 -3.343314440E+02  3.343314440E+02  0.000000000E+00  0.00000E+00  9.000E+00
      25     1     1     2     0     0 -3.190273998E+02 -3.595099649E+01  2.473967900E+02  4.241475306E+02  1.250000000E+02  0.00000E+00  9.000E+00
      25     1     1     2     0     0  2.579975423E+02  8.505421993E+01  4.726521923E+02  5.593049679E+02  1.250000000E+02  0.00000E+00  9.000E+00
      21     1     1     2   502   511  6.102985755E+01 -4.910322344E+01 -1.950595093E+02  2.101998626E+02  3.814697266E-06  0.00000E+00  9.000E+00
#rwgt            2          11   1.7531560709215714E-003           5      219754           0
</event>
<event>
      5   9999  3.79277E-02  1.74843E+01 -1.00000E+00  1.71335E-01
      21    -1     0     0   502   501  0.000000000E+00  0.000000000E+00  3.573855305E+02  3.573855305E+02  0.000000000E+00  0.00000E+00  9.000E+00
      21    -1     0     0   501   512  0.000000000E+00  0.000000000E+00 -4.313487989E+02  4.313487989E+02  0.000000000E+00  0.00000E+00  9.000E+00
      25     1     1     2     0     0  3.481682681E+02 -8.291001003E+01  4.368480525E+01  3.816131220E+02  1.250000000E+02  0.00000E+00  9.000E+00
      25     1     1     2     0     0 -3.369607853E+02  9.632991471E+01 -1.149059470E+02  3.894231631E+02  1.250000000E+02  0.00000E+00  9.000E+00
      21     1     1     2   502   512 -1.120748277E+01 -1.341990467E+01 -2.742126607E+00  1.769804424E+01  4.568609511E-07  0.00000E+00  9.000E+00
#rwgt            1           1   1.2929463701115130E-002           5      219819           0
</event>
<event>
      5   9999  3.79277E-02  3.97063E+01 -1.00000E+00  1.45039E-01
      21    -1     0     0   511   501  0.000000000E+00  0.000000000E+00  4.401533591E+01  4.401533591E+01  0.000000000E+00  0.00000E+00  9.000E+00
      21    -1     0     0   501   502  0.000000000E+00  0.000000000E+00 -1.011134866E+03  1.011134866E+03  0.000000000E+00  0.00000E+00  9.000E+00
      25     1     1     2     0     0  2.909067643E+01  8.882359170E+01 -1.830215155E+02  2.405364277E+02  1.250000000E+02  0.00000E+00  9.000E+00
      25     1     1     2     0     0 -1.111715551E+01 -5.341817375E+01 -7.499254520E+02  7.622271814E+02  1.250000000E+02  0.00000E+00  9.000E+00
      21     1     1     2   511   502 -1.797352092E+01 -3.540541795E+01 -3.417256241E+01  5.238659272E+01  6.743495762E-07  0.00000E+00  9.000E+00
#rwgt            1           1   1.7520642489639979E-003           5      220409           0
</event>
<event>
      5   9999  3.79277E-02  1.00370E+01 -1.00000E+00  1.95572E-01
      21    -1     0     0   512   501  0.000000000E+00  0.000000000E+00  1.226500749E+02  1.226500749E+02  0.000000000E+00  0.00000E+00  9.000E+00
      21    -1     0     0   501   502  0.000000000E+00  0.000000000E+00 -5.199685506E+02  5.199685506E+02  0.000000000E+00  0.00000E+00  9.000E+00
      25     1     1     2     0     0  1.074654181E+02  1.783460248E+02 -2.487050095E+02  3.476137258E+02  1.250000000E+02  0.00000E+00  9.000E+00
      25     1     1     2     0     0 -9.947359909E+01 -1.844182799E+02 -1.469712941E+02  2.848344434E+02  1.250000000E+02  0.00000E+00  9.000E+00
      21     1     1     2   512   502 -7.991818988E+00  6.072255082E+00 -1.642172114E+00  1.017045632E+01  1.032382731E-07  0.00000E+00  9.000E+00
#rwgt            1           1   3.8347533974528072E-002           5      220574           0
</event>
<event>
      5   9999  3.79277E-02  2.52553E+01 -1.00000E+00  1.58421E-01
      21    -1     0     0   502   501  0.000000000E+00  0.000000000E+00  5.643546250E+02  5.643546250E+02  0.000000000E+00  0.00000E+00  9.000E+00
      21    -1     0     0   511   502  0.000000000E+00  0.000000000E+00 -9.192485908E+01  9.192485908E+01  0.000000000E+00  0.00000E+00  9.000E+00
      25     1     1     2     0     0 -1.055855545E+01 -9.515855879E+01  4.460284702E+02  4.730042607E+02  1.250000000E+02  0.00000E+00  9.000E+00
      25     1     1     2     0     0  2.794256800E+01  7.683847363E+01  3.994964696E+01  1.546153693E+02  1.250000000E+02  0.00000E+00  9.000E+00
      21     1     1     2   511   501 -1.738401256E+01  1.832008516E+01 -1.354835125E+01  2.865985406E+01  1.685873940E-07  0.00000E+00  9.000E+00
#rwgt            1           1   4.9609080028388361E-002           5      220835           0
</event>
<event>
      5   9999  3.79277E-02  4.47671E+01 -1.00000E+00  1.41871E-01
      21    -1     0     0   502   501  0.000000000E+00  0.000000000E+00  4.910716561E+02  4.910716561E+02  0.000000000E+00  0.00000E+00  9.000E+00
      21    -1     0     0   501   512  0.000000000E+00  0.000000000E+00 -1.092467487E+02  1.092467487E+02  0.000000000E+00  0.00000E+00  9.000E+00
      25     1     1     2     0     0 -9.939132797E+01 -1.027780049E+02  3.353613652E+02  3.854013488E+02  1.250000000E+02  0.00000E+00  9.000E+00
      25     1     1     2     0     0  8.545986012E+01  6.023381288E+01  2.363933625E+01  1.646672952E+02  1.250000000E+02  0.00000E+00  9.000E+00
      21     1     1     2   502   512  1.393146784E+01  4.254419203E+01  2.282420593E+01  5.024976068E+01  7.539457465E-07  0.00000E+00  9.000E+00
#rwgt            1           1   3.2277455577027610E-002           5      221021           0
</event>
<event>
      5   9999  3.79277E-02  1.64924E+02 -1.00000E+00  1.14784E-01
       1    -1     0     0   502     0  0.000000000E+00  0.000000000E+00  4.709444730E+02  4.709444730E+02  0.000000000E+00  0.00000E+00  9.000E+00
      21    -1     0     0   501   502  0.000000000E+00  0.000000000E+00 -5.076933913E+02  5.076933913E+02  0.000000000E+00  0.00000E+00  9.000E+00
      25     1     1     2     0     0 -7.966193517E+01  2.256326309E+02 -2.880093222E+02  3.947536925E+02  1.250000000E+02  0.00000E+00  9.000E+00
      25     1     1     2     0     0  2.430688806E+02 -2.033165192E+02  8.803700308E+01  3.518459913E+02  1.250000000E+02  0.00000E+00  9.000E+00
       1     1     1     2   501     0 -1.634069454E+02 -2.231611176E+01  1.632234008E+02  2.320381805E+02  1.907348633E-06  0.00000E+00  9.000E+00
#rwgt            1           1   2.9361423147706612E-002           5      221151           0
</event>
<event>
      5   9999  3.79277E-02  5.84724E+01 -1.00000E+00  1.35305E-01
      21    -1     0     0   511   501  0.000000000E+00  0.000000000E+00  2.050049154E+03  2.050049154E+03  0.000000000E+00  0.00000E+00  9.000E+00
      21    -1     0     0   501   502  0.000000000E+00  0.000000000E+00 -6.827155740E+01  6.827155740E+01  0.000000000E+00  0.00000E+00  9.000E+00
      25     1     1     2     0     0  3.872387050E+01  9.067533632E+01  1.733072331E+03  1.740369576E+03  1.250000000E+02  0.00000E+00  9.000E+00
      25     1     1     2     0     0 -6.259349100E+01 -3.729684005E+01  2.512489628E+01  1.468511485E+02  1.250000000E+02  0.00000E+00  9.000E+00
      21     1     1     2   511   502  2.386962049E+01 -5.337849627E+01  2.235803688E+02  2.310999869E+02  3.814697266E-06  0.00000E+00  9.000E+00
#rwgt            2          11   4.6227946546549530E-003           5      221247           0
</event>
<event>
      5   9999 -3.79277E-02  1.24556E+02 -1.00000E+00  1.19685E-01
      21    -1     0     0   512   501  0.000000000E+00  0.000000000E+00  2.042286869E+02  2.042286869E+02  0.000000000E+00  0.00000E+00  9.000E+00
      21    -1     0     0   501   502  0.000000000E+00  0.000000000E+00 -1.184928525E+03  1.184928525E+03  0.000000000E+00  0.00000E+00  9.000E+00
      25     1     1     2     0     0 -1.506375717E+02 -3.406752731E+02 -4.275391602E+02  5.806600151E+02  1.250000000E+02  0.00000E+00  9.000E+00
      25     1     1     2     0     0  2.749857504E+02  3.478748697E+02 -4.734622276E+02  6.606251349E+02  1.250000000E+02  0.00000E+00  9.000E+00
      21     1     1     2   512   502 -1.243481787E+02 -7.199596658E+00 -7.969845068E+01  1.478720622E+02  2.132480600E-06  0.00000E+00  9.000E+00
#rwgt            1           1 -0.14018427233597505                5      221267           0
</event>
<event>
      5   9999  3.79277E-02  1.68511E+01 -1.00000E+00  1.72751E-01
      21    -1     0     0   502   511  0.000000000E+00  0.000000000E+00  2.275298350E+02  2.275298350E+02  0.000000000E+00  0.00000E+00  9.000E+00
      21    -1     0     0   501   502  0.000000000E+00  0.000000000E+00 -1.915759759E+02  1.915759759E+02  0.000000000E+00  0.00000E+00  9.000E+00
      25     1     1     2     0     0  2.625725705E+01  1.405084228E+02  9.520872497E+01  2.124188356E+02  1.250000000E+02  0.00000E+00  9.000E+00
      25     1     1     2     0     0 -2.759008470E+01 -1.237100804E+02 -6.401240173E+01  1.891771243E+02  1.250000000E+02  0.00000E+00  9.000E+00
      21     1     1     2   501   511  1.332827651E+00 -1.679834234E+01  4.757535879E+00  1.750985102E+01  2.230201594E-07  0.00000E+00  9.000E+00
#rwgt            1           1   1.7671108441959505E-002           5      221396           0
</event>
<event>
      5   9999  3.91898E-02  5.61423E+01 -1.00000E+00  1.36264E-01
       3    -1     0     0   502     0  0.000000000E+00  0.000000000E+00  2.476796073E+03  2.476796073E+03  0.000000000E+00  0.00000E+00  9.000E+00
      21    -1     0     0   501   502  0.000000000E+00  0.000000000E+00 -1.082171353E+02  1.082171353E+02  0.000000000E+00  0.00000E+00  9.000E+00
      25     1     1     2     0     0  1.025352257E+02 -2.042070609E+02  9.570456804E+02  9.918545410E+02  1.250000000E+02  0.00000E+00  9.000E+00
      25     1     1     2     0     0 -1.565865616E+02  2.193864464E+02  1.545154240E+02  3.348877131E+02  1.250000000E+02  0.00000E+00  9.000E+00
       3     1     1     2   501     0  5.405133583E+01 -1.517938559E+01  1.257017834E+03  1.258270954E+03  1.525878906E-05  0.00000E+00  9.000E+00
#rwgt            1           1  0.38489772362898661                5      221635           0
</event>
<event>
      5   9999  3.79277E-02  5.38639E+01 -1.00000E+00  1.37256E-01
       2    -1     0     0   502     0  0.000000000E+00  0.000000000E+00  1.018399373E+03  1.018399373E+03  0.000000000E+00  0.00000E+00  9.000E+00
      21    -1     0     0   501   502  0.000000000E+00  0.000000000E+00 -1.121919821E+02  1.121919821E+02  0.000000000E+00  0.00000E+00  9.000E+00
      25     1     1     2     0     0 -5.387300489E+01 -1.226459868E+02  7.742353625E+01  1.989063666E+02  1.250000000E+02  0.00000E+00  9.000E+00
      25     1     1     2     0     0  4.295227939E+00  1.437021944E+02  1.295611346E+02  2.303906623E+02  1.250000000E+02  0.00000E+00  9.000E+00
       2     1     1     2   501     0  4.957777695E+01 -2.105620760E+01  6.992227197E+02  7.012943260E+02  1.525878906E-05  0.00000E+00  9.000E+00
#rwgt            1           1   4.3510981036985460E-002           5      221761           0
</event>
<event>
      5   9999  3.79277E-02  5.49634E+01 -1.00000E+00  1.36770E-01
      21    -1     0     0   502   501  0.000000000E+00  0.000000000E+00  1.082712552E+03  1.082712552E+03  0.000000000E+00  0.00000E+00  9.000E+00
      21    -1     0     0   511   502  0.000000000E+00  0.000000000E+00 -3.555410711E+02  3.555410711E+02  0.000000000E+00  0.00000E+00  9.000E+00
      25     1     1     2     0     0  1.751292031E+02 -1.350184312E+02  2.784683384E+02  3.769215170E+02  1.250000000E+02  0.00000E+00  9.000E+00
      25     1     1     2     0     0 -1.921538959E+02  8.275813961E+01  7.326459160E+02  7.721185580E+02  1.250000000E+02  0.00000E+00  9.000E+00
      21     1     1     2   511   501  1.702469284E+01  5.226029158E+01 -2.839427730E+02  2.892135484E+02  5.394796609E-06  0.00000E+00  9.000E+00
#rwgt            1           1   2.4111360724028710E-002           5      221868           0
</event>
<event>
      5   9999  3.79277E-02  3.50377E+01 -1.00000E+00  1.48500E-01
      21    -1     0     0   502   501  0.000000000E+00  0.000000000E+00  2.537328938E+02  2.537328938E+02  0.000000000E+00  0.00000E+00  9.000E+00
      21    -1     0     0   501   512  0.000000000E+00  0.000000000E+00 -8.806291276E+02  8.806291276E+02  0.000000000E+00  0.00000E+00  9.000E+00
      25     1     1     2     0     0  1.419643355E+02 -2.493198114E+01  1.370483154E+02  2.349100189E+02  1.250000000E+02  0.00000E+00  9.000E+00
      25     1     1     2     0     0 -1.264867546E+02 -6.501887422E+00 -5.026487639E+01  1.849127671E+02  1.250000000E+02  0.00000E+00  9.000E+00
      21     1     1     2   502   512 -1.547758091E+01  3.143386856E+01 -7.136796728E+02  7.145392355E+02  7.629394531E-06  0.00000E+00  9.000E+00
#rwgt            1           1   4.3185459672859354E-002           5      222086           0
</event>
<event>
      5   9999  3.79277E-02  6.53386E+01 -1.00000E+00  1.32755E-01
       2    -1     0     0   502     0  0.000000000E+00  0.000000000E+00  7.159374280E+02  7.159374280E+02  0.000000000E+00  0.00000E+00  9.000E+00
      21    -1     0     0   501   502  0.000000000E+00  0.000000000E+00 -6.723902821E+02  6.723902821E+02  0.000000000E+00  0.00000E+00  9.000E+00
      25     1     1     2     0     0  1.276855793E+01  4.888578144E+01 -1.656704706E+02  2.135990649E+02  1.250000000E+02  0.00000E+00  9.000E+00
      25     1     1     2     0     0 -3.627434425E+01  1.207824350E+01 -4.723158292E+02  4.900703567E+02  1.250000000E+02  0.00000E+00  9.000E+00
       2     1     1     2   501     0  2.350578632E+01 -6.096402494E+01  6.815334458E+02  6.846582885E+02  0.000000000E+00  0.00000E+00  9.000E+00
#rwgt            1           1   4.9924316941385688E-002           5      222275           0
</event>
<event>
      5   9999  3.79277E-02  3.45398E+01 -1.00000E+00  1.48907E-01
      21    -1     0     0   502   501  0.000000000E+00  0.000000000E+00  1.937295608E+02  1.937295608E+02  0.000000000E+00  0.00000E+00  9.000E+00
      21    -1     0     0   511   502  0.000000000E+00  0.000000000E+00 -5.819563647E+02  5.819563647E+02  0.000000000E+00  0.00000E+00  9.000E+00
      25     1     1     2     0     0  1.133691166E+02  1.225756907E+02  6.952094123E+00  2.086880163E+02  1.250000000E+02  0.00000E+00  9.000E+00
      25     1     1     2     0     0 -1.324926309E+02 -1.513383541E+02 -8.004911999E+01  2.499809118E+02  1.250000000E+02  0.00000E+00  9.000E+00
      21     1     1     2   511   501  1.912351427E+01  2.876266346E+01 -3.151297780E+02  3.170169973E+02  6.607249480E-06  0.00000E+00  9.000E+00
#rwgt            1           1  0.16519294693000461                5      222365           0
</event>
<event>
      5   9999  3.79277E-02  5.70484E+01 -1.00000E+00  1.35885E-01
      21    -1     0     0   502   512  0.000000000E+00  0.000000000E+00  2.675012180E+02  2.675012180E+02  0.000000000E+00  0.00000E+00  9.000E+00
      21    -1     0     0   501   502  0.000000000E+00  0.000000000E+00 -2.391302055E+02  2.391302055E+02  0.000000000E+00  0.00000E+00  9.000E+00
      25     1     1     2     0     0 -1.410973969E+01 -1.028957366E+02 -4.700210401E+00  1.625844683E+02  1.250000000E+02  0.00000E+00  9.000E+00
      25     1     1     2     0     0  6.974717664E+01  9.028657932E+01 -1.018771899E+02  1.975355585E+02  1.250000000E+02  0.00000E+00  9.000E+00
      21     1     1     2   501   512 -5.563743694E+01  1.260915725E+01  1.349484129E+02  1.465113967E+02  1.907348633E-06  0.00000E+00  9.000E+00
#rwgt            1           1   5.0507262278243689E-002           5      222498           0
</event>
<event>
      5   9999  3.79277E-02  2.72460E+01 -1.00000E+00  1.56002E-01
      21    -1     0     0   502   511  0.000000000E+00  0.000000000E+00  4.187331865E+02  4.187331865E+02  0.000000000E+00  0.00000E+00  9.000E+00
      21    -1     0     0   501   502  0.000000000E+00  0.000000000E+00 -1.690990036E+02  1.690990036E+02  0.000000000E+00  0.00000E+00  9.000E+00
      25     1     1     2     0     0  1.234426926E+02  8.254235904E+01  1.161336636E+02  2.261932077E+02  1.250000000E+02  0.00000E+00  9.000E+00
      25     1     1     2     0     0 -9.720773533E+01 -7.518916255E+01 -4.507582933E+01  1.809960894E+02  1.250000000E+02  0.00000E+00  9.000E+00
      21     1     1     2   501   511 -2.623495729E+01 -7.353196482E+00  1.785763487E+02  1.806428930E+02  4.264961200E-06  0.00000E+00  9.000E+00
#rwgt            1           1   3.1193626614160967E-002           5      222587           0
</event>
<event>
      5   9999  3.79277E-02  4.26560E+01 -1.00000E+00  1.43130E-01
      21    -1     0     0   502   501  0.000000000E+00  0.000000000E+00  1.947088599E+02  1.947088599E+02  0.000000000E+00  0.00000E+00  9.000E+00
      21    -1     0     0   512   502  0.000000000E+00  0.000000000E+00 -3.864308527E+02  3.864308527E+02  0.000000000E+00  0.00000E+00  9.000E+00
      25     1     1     2     0     0 -5.664887783E+01  9.455728197E+01  1.057372744E+02  1.973715940E+02  1.250000000E+02  0.00000E+00  9.000E+00
      25     1     1     2     0     0  8.920389369E+01 -6.699457355E+01 -1.331385296E+02  2.140011112E+02  1.250000000E+02  0.00000E+00  9.000E+00
      21     1     1     2   512   501 -3.255501586E+01 -2.756270841E+01 -1.643207376E+02  1.697670073E+02  1.907348633E-06  0.00000E+00  9.000E+00
#rwgt            1           1   3.7557384058600395E-002           5      222730           0
</event>
<event>
      5   9999  3.79277E-02  2.66517E+01 -1.00000E+00  1.56697E-01
      21    -1     0     0   502   511  0.000000000E+00  0.000000000E+00  1.900144238E+02  1.900144238E+02  0.000000000E+00  0.00000E+00  9.000E+00
      21    -1     0     0   501   502  0.000000000E+00  0.000000000E+00 -2.254588557E+02  2.254588557E+02  0.000000000E+00  0.00000E+00  9.000E+00
      25     1     1     2     0     0 -8.758871534E+01 -1.627393164E+01  8.030281412E+01  1.732344246E+02  1.250000000E+02  0.00000E+00  9.000E+00
      25     1     1     2     0     0  1.061843103E+02 -2.818453563E+00 -1.324082055E+02  2.108079323E+02  1.250000000E+02  0.00000E+00  9.000E+00
      21     1     1     2   501   511 -1.859559501E+01  1.909238520E+01  1.666095949E+01  3.143092263E+01  4.768371582E-07  0.00000E+00  9.000E+00
#rwgt            1           1   4.6858896944168463E-002           5      222793           0
</event>
<event>
      5   9999  3.79277E-02  8.24506E+01 -1.00000E+00  1.27718E-01
      21    -1     0     0   512   501  0.000000000E+00  0.000000000E+00  2.742518437E+02  2.742518437E+02  0.000000000E+00  0.00000E+00  9.000E+00
      21    -1     0     0   501   502  0.000000000E+00  0.000000000E+00 -2.673039208E+02  2.673039208E+02  0.000000000E+00  0.00000E+00  9.000E+00
      25     1     1     2     0     0  1.633008519E+02 -1.154483614E+02  1.658836780E+01  2.364226434E+02  1.250000000E+02  0.00000E+00  9.000E+00
      25     1     1     2     0     0 -8.654210355E+01  1.455513340E+02 -4.531136154E+01  2.152971110E+02  1.250000000E+02  0.00000E+00  9.000E+00
      21     1     1     2   512   502 -7.675874834E+01 -3.010297259E+01  3.567091666E+01  8.983601005E+01  1.168007728E-06  0.00000E+00  9.000E+00
#rwgt            1           1   4.4008622715314444E-002           5      222929           0
</event>
<event>
      5   9999  3.79277E-02  7.51456E+01 -1.00000E+00  1.29679E-01
      21    -1     0     0   502   501  0.000000000E+00  0.000000000E+00  1.720718489E+03  1.720718489E+03  0.000000000E+00  0.00000E+00  9.000E+00
      21    -1     0     0   501   511  0.000000000E+00  0.000000000E+00 -3.292592364E+01  3.292592364E+01  0.000000000E+00  0.00000E+00  9.000E+00
      25     1     1     2     0     0  7.967182141E+01  2.269360644E+01  5.924342341E+02  6.111185815E+02  1.250000000E+02  0.00000E+00  9.000E+00
      25     1     1     2     0     0 -1.404337232E+02  2.152009579E+01  1.015065677E+03  1.032554151E+03  1.250000000E+02  0.00000E+00  9.000E+00
      21     1     1     2   502   511  6.076190174E+01 -4.421370224E+01  8.029265345E+01  1.099716798E+02  9.536743164E-07  0.00000E+00  9.000E+00
#rwgt            1           1   1.3113249626663371E-002           5      223201           0
</event>
<event>
      5   9999  3.79277E-02  1.08383E+01 -1.00000E+00  1.91801E-01
      21    -1     0     0   502   501  0.000000000E+00  0.000000000E+00  2.964362780E+02  2.964362780E+02  0.000000000E+00  0.00000E+00  9.000E+00
      21    -1     0     0   501   512  0.000000000E+00  0.000000000E+00 -6.708479369E+02  6.708479369E+02  0.000000000E+00  0.00000E+00  9.000E+00
      25     1     1     2     0     0 -1.103528982E+02 -2.770894935E+02 -4.766013388E+02  5.759602293E+02  1.250000000E+02  0.00000E+00  9.000E+00
      25     1     1     2     0     0  1.118793139E+02  2.663591976E+02  1.454234811E+02  3.467523495E+02  1.250000000E+02  0.00000E+00  9.000E+00
      21     1     1     2   502   512 -1.526415704E+00  1.073029589E+01 -4.323380111E+01  4.457163620E+01  4.768371582E-07  0.00000E+00  9.000E+00
#rwgt            1           1   3.2749018367120318E-002           5      223310           0
</event>
<event>
      5   9999  3.79277E-02  1.12088E+01 -1.00000E+00  1.90197E-01
      21    -1     0     0   502   501  0.000000000E+00  0.000000000E+00  6.052204522E+02  6.052204522E+02  0.000000000E+00  0.00000E+00  9.000E+00
      21    -1     0     0   511   502  0.000000000E+00  0.000000000E+00 -2.078938043E+02  2.078938043E+02  0.000000000E+00  0.00000E+00  9.000E+00
      25     1     1     2     0     0 -5.403732235E+01  1.157177608E+02  5.169801652E+02  5.469955426E+02  1.250000000E+02  0.00000E+00  9.000E+00
      25     1     1     2     0     0  4.427669895E+01 -1.212284842E+02 -3.793153504E+01  1.836316225E+02  1.250000000E+02  0.00000E+00  9.000E+00
      21     1     1     2   511   501  9.760623405E+00  5.510723348E+00 -8.172198237E+01  8.248709138E+01  1.348699152E-06  0.00000E+00  9.000E+00
#rwgt            1           1   5.2217167615847264E-002           5      223855           0
</event>
<event>
      5   9999  3.79277E-02  1.46400E+02 -1.00000E+00  1.16813E-01
      21    -1     0     0   512   501  0.000000000E+00  0.000000000E+00  2.220498530E+02  2.220498530E+02  0.000000000E+00  0.00000E+00  9.000E+00
      21    -1     0     0   501   502  0.000000000E+00  0.000000000E+00 -4.963272107E+02  4.963272107E+02  0.000000000E+00  0.00000E+00  9.000E+00
      25     1     1     2     0     0 -1.793679280E+02 -1.345981671E+02 -1.293063220E+02  2.874624238E+02  1.250000000E+02  0.00000E+00  9.000E+00
      25     1     1     2     0     0  2.219454197E+02 -5.473155276E+00 -1.228447003E+02  2.828525149E+02  1.250000000E+02  0.00000E+00  9.000E+00
      21     1     1     2   512   502 -4.257749172E+01  1.400713224E+02 -2.212633534E+01  1.480621250E+02  2.589888690E-06  0.00000E+00  9.000E+00
#rwgt            1           1   4.4328484504030971E-002           5      224272           0
</event>
<event>
      5   9999  3.79277E-02  1.64247E+01 -1.00000E+00  1.73750E-01
      21    -1     0     0   502   511  0.000000000E+00  0.000000000E+00  9.427017551E+02  9.427017551E+02  0.000000000E+00  0.00000E+00  9.000E+00
      21    -1     0     0   501   502  0.000000000E+00  0.000000000E+00 -4.437901717E+01  4.437901717E+01  0.000000000E+00  0.00000E+00  9.000E+00
      25     1     1     2     0     0 -2.960551482E+01  1.310884891E+01  7.674530829E+02  7.782400420E+02  1.250000000E+02  0.00000E+00  9.000E+00
      25     1     1     2     0     0  1.413090539E+01 -7.603597328E+00  6.667160127E+01  1.425748912E+02  1.250000000E+02  0.00000E+00  9.000E+00
      21     1     1     2   501   511  1.547460943E+01 -5.505251580E+00  6.419805373E+01  6.626583912E+01  1.348699152E-06  0.00000E+00  9.000E+00
#rwgt            1           1   4.3821156058267606E-002           5      224397           0
</event>
<event>
      5   9999  3.79277E-02  3.23286E+01 -1.00000E+00  1.50819E-01
      21    -1     0     0   512   501  0.000000000E+00  0.000000000E+00  1.713145671E+02  1.713145671E+02  0.000000000E+00  0.00000E+00  9.000E+00
      21    -1     0     0   501   502  0.000000000E+00  0.000000000E+00 -2.981404422E+02  2.981404422E+02  0.000000000E+00  0.00000E+00  9.000E+00
      25     1     1     2     0     0  1.617138453E+02  1.426796612E+01 -1.274062543E+02  2.412722451E+02  1.250000000E+02  0.00000E+00  9.000E+00
      25     1     1     2     0     0 -1.293870186E+02 -1.461084136E+01 -3.082525625E+01  1.831110966E+02  1.250000000E+02  0.00000E+00  9.000E+00
      21     1     1     2   512   502 -3.232682670E+01  3.428752352E-01  3.140563535E+01  4.507166760E+01  0.000000000E+00  0.00000E+00  9.000E+00
#rwgt            1           1   3.1885795495891711E-002           5      224631           0
</event>
<event>
      5   9999 -3.79277E-02  9.92848E+01 -1.00000E+00  1.23968E-01
      21    -1     0     0   511   501  0.000000000E+00  0.000000000E+00  1.107078054E+02  1.107078054E+02  0.000000000E+00  0.00000E+00  9.000E+00
      21    -1     0     0   501   502  0.000000000E+00  0.000000000E+00 -1.354779051E+03  1.354779051E+03  0.000000000E+00  0.00000E+00  9.000E+00
      25     1     1     2     0     0  2.037294933E+02  1.639814137E+02 -7.887510677E+02  8.403266372E+02  1.250000000E+02  0.00000E+00  9.000E+00
      25     1     1     2     0     0 -1.087450872E+02 -1.350776002E+02 -4.777315852E+02  5.233774160E+02  1.250000000E+02  0.00000E+00  9.000E+00
      21     1     1     2   511   502 -9.498440608E+01 -2.890381346E+01  2.241140728E+01  1.017828031E+02  1.469710828E-06  0.00000E+00  9.000E+00
#rwgt            1           1  -8.4135558470483512E-003           5      224728           0
</event>
<event>
      5   9999  3.79277E-02  5.38272E+01 -1.00000E+00  1.37272E-01
       2    -1     0     0   502     0  0.000000000E+00  0.000000000E+00  2.019191898E+03  2.019191898E+03  0.000000000E+00  0.00000E+00  9.000E+00
      21    -1     0     0   501   502  0.000000000E+00  0.000000000E+00 -1.631634009E+02  1.631634009E+02  0.000000000E+00  0.00000E+00  9.000E+00
      25     1     1     2     0     0  5.797098371E+01 -1.003719579E+02  1.353961704E+02  2.176976983E+02  1.250000000E+02  0.00000E+00  9.000E+00
      25     1     1     2     0     0 -3.796895702E+01  5.039905704E+01 -8.130446739E+01  1.619170252E+02  1.250000000E+02  0.00000E+00  9.000E+00
       2     1     1     2   501     0 -2.000202670E+01  4.997290083E+01  1.801936794E+03  1.802740576E+03  0.000000000E+00  0.00000E+00  9.000E+00
#rwgt            1           1   3.7454976949558377E-002           5      224942           0
</event>
<event>
      5   9999  3.79277E-02  5.49369E+01 -1.00000E+00  1.36782E-01
      21    -1     0     0   502   501  0.000000000E+00  0.000000000E+00  8.854632155E+01  8.854632155E+01  0.000000000E+00  0.00000E+00  9.000E+00
      -5    -1     0     0     0   502  0.000000000E+00  0.000000000E+00 -9.821862090E+02  9.821862090E+02  0.000000000E+00  0.00000E+00  9.000E+00
      25     1     1     2     0     0 -1.416187456E+02  9.076824369E+00 -3.375415210E+02  3.869076585E+02  1.250000000E+02  0.00000E+00  9.000E+00
      25     1     1     2     0     0  1.920211488E+02  1.277873468E+01 -1.502854401E+02  2.743102826E+02  1.250000000E+02  0.00000E+00  9.000E+00
      -5     1     1     2     0   501 -5.040240323E+01 -2.185555905E+01 -4.058129263E+02  4.095145893E+02  0.000000000E+00  0.00000E+00  9.000E+00
#rwgt            1           1   1.4652183868461968E-002           5      225005           0
</event>
<event>
      5   9999  3.79277E-02  6.71624E+00 -1.00000E+00  2.18125E-01
      21    -1     0     0   502   501  0.000000000E+00  0.000000000E+00  2.184867116E+02  2.184867116E+02  0.000000000E+00  0.00000E+00  9.000E+00
      21    -1     0     0   501   511  0.000000000E+00  0.000000000E+00 -1.746808583E+02  1.746808583E+02  0.000000000E+00  0.00000E+00  9.000E+00
      25     1     1     2     0     0  6.092587398E+01  1.262652062E+02  4.780071955E+01  1.938163389E+02  1.250000000E+02  0.00000E+00  9.000E+00
      25     1     1     2     0     0 -6.133236216E+01 -1.329691355E+02 -2.932023583E+00  1.925514124E+02  1.250000000E+02  0.00000E+00  9.000E+00
      21     1     1     2   502   511  4.064881814E-01  6.703929280E+00 -1.062842675E+00  6.799818746E+00  1.043081284E-07  0.00000E+00  9.000E+00
#rwgt            1           1   3.1555201637280206E-002           5      225142           0
</event>
<event>
      5   9999  3.79277E-02  1.34225E+02 -1.00000E+00  1.18339E-01
      21    -1     0     0   502   501  0.000000000E+00  0.000000000E+00  1.989368997E+03  1.989368997E+03  0.000000000E+00  0.00000E+00  9.000E+00
      21    -1     0     0   512   502  0.000000000E+00  0.000000000E+00 -8.900022638E+01  8.900022638E+01  0.000000000E+00  0.00000E+00  9.000E+00
      25     1     1     2     0     0 -8.436889873E+01 -1.517067831E+02  2.056702992E+02  2.967462402E+02  1.250000000E+02  0.00000E+00  9.000E+00
      25     1     1     2     0     0  7.802188957E+01  1.763160867E+01  1.622384000E+03  1.629157185E+03  1.250000000E+02  0.00000E+00  9.000E+00
      21     1     1     2   512   501  6.347009155E+00  1.340751744E+02  7.231447138E+01  1.524657984E+02  1.651812370E-06  0.00000E+00  9.000E+00
#rwgt            1           1   5.4128620334601120E-002           5      225510           0
</event>
<event>
      5   9999  3.79277E-02  1.46161E+01 -1.00000E+00  1.78451E-01
      21    -1     0     0   502   501  0.000000000E+00  0.000000000E+00  5.141353709E+01  5.141353709E+01  0.000000000E+00  0.00000E+00  9.000E+00
      21    -1     0     0   501   511  0.000000000E+00  0.000000000E+00 -7.327967081E+02  7.327967081E+02  0.000000000E+00  0.00000E+00  9.000E+00
      25     1     1     2     0     0 -3.534687270E+01 -1.138780629E+02 -2.312897507E+02  2.886824612E+02  1.250000000E+02  0.00000E+00  9.000E+00
      25     1     1     2     0     0  2.603631727E+01  1.251450221E+02 -3.369474840E+02  3.814417037E+02  1.250000000E+02  0.00000E+00  9.000E+00
      21     1     1     2   502   511  9.310555423E+00 -1.126695919E+01 -1.131459363E+02  1.140860803E+02  0.000000000E+00  0.00000E+00  9.000E+00
#rwgt            1           1   4.9254005365993191E-002           5      225738           0
</event>
<event>
      5   9999  3.79277E-02  4.05986E+01 -1.00000E+00  1.44441E-01
       1    -1     0     0   502     0  0.000000000E+00  0.000000000E+00  3.381900587E+02  3.381900587E+02  0.000000000E+00  0.00000E+00  9.000E+00
      21    -1     0     0   501   502  0.000000000E+00  0.000000000E+00 -2.753853905E+02  2.753853905E+02  0.000000000E+00  0.00000E+00  9.000E+00
      25     1     1     2     0     0  1.070698190E+02 -1.492236739E+01  4.917166339E+01  1.724223758E+02  1.250000000E+02  0.00000E+00  9.000E+00
      25     1     1     2     0     0 -1.013379570E+02  5.511429618E+01 -1.774494194E+02  2.458053368E+02  1.250000000E+02  0.00000E+00  9.000E+00
       1     1     1     2   501     0 -5.731862048E+00 -4.019192879E+01  1.910824241E+02  1.953477366E+02  0.000000000E+00  0.00000E+00  9.000E+00
#rwgt            1           1   4.5476222441462641E-002           5      225894           0
</event>
<event>
      5   9999  3.79277E-02  2.03183E+01 -1.00000E+00  1.65805E-01
       1    -1     0     0   502     0  0.000000000E+00  0.000000000E+00  7.454220068E+02  7.454220068E+02  0.000000000E+00  0.00000E+00  9.000E+00
      21    -1     0     0   501   502  0.000000000E+00  0.000000000E+00 -3.532499847E+02  3.532499847E+02  0.000000000E+00  0.00000E+00  9.000E+00
      25     1     1     2     0     0 -8.998016247E+01  5.556081560E+01 -3.331713365E+01  1.670881961E+02  1.250000000E+02  0.00000E+00  9.000E+00
      25     1     1     2     0     0  8.502193400E+01 -7.526481233E+01 -2.246958542E+02  2.810813906E+02  1.250000000E+02  0.00000E+00  9.000E+00
       1     1     1     2   501     0  4.958228467E+00  1.970399672E+01  6.501850100E+02  6.505024048E+02  7.629394531E-06  0.00000E+00  9.000E+00
#rwgt            1           1   3.9216800506653077E-002           5      226125           0
</event>
<event>
      5   9999  3.79277E-02  2.20786E+01 -1.00000E+00  1.62902E-01
      21    -1     0     0   502   501  0.000000000E+00  0.000000000E+00  1.914027209E+01  1.914027209E+01  0.000000000E+00  0.00000E+00  9.000E+00
       2    -1     0     0   501     0  0.000000000E+00  0.000000000E+00 -2.418279266E+03  2.418279266E+03  0.000000000E+00  0.00000E+00  9.000E+00
      25     1     1     2     0     0  3.159040333E+01  1.217254814E+02 -6.650435987E+02  6.882754060E+02  1.250000000E+02  0.00000E+00  9.000E+00
      25     1     1     2     0     0 -9.541749711E+00 -1.205766308E+02 -1.021236694E+03  1.035943606E+03  1.250000000E+02  0.00000E+00  9.000E+00
       2     1     1     2   502     0 -2.204865362E+01 -1.148850565E+00 -7.128587011E+02  7.132005263E+02  0.000000000E+00  0.00000E+00  9.000E+00
#rwgt            1           1   5.8334638823152658E-002           5      226278           0
</event>
<event>
      5   9999  3.79277E-02  1.01397E+02 -1.00000E+00  1.23558E-01
      21    -1     0     0   502   511  0.000000000E+00  0.000000000E+00  2.162082570E+02  2.162082570E+02  0.000000000E+00  0.00000E+00  9.000E+00
      21    -1     0     0   501   502  0.000000000E+00  0.000000000E+00 -4.756397131E+02  4.756397131E+02  0.000000000E+00  0.00000E+00  9.000E+00
      25     1     1     2     0     0  5.898765917E+01  6.928657495E+01 -3.783098203E+02  4.086850787E+02  1.250000000E+02  0.00000E+00  9.000E+00
      25     1     1     2     0     0  3.915979439E+01 -4.382226250E+01  1.656435443E+01  1.391159877E+02  1.250000000E+02  0.00000E+00  9.000E+00
      21     1     1     2   501   511 -9.814745356E+01 -2.546431246E+01  1.023140099E+02  1.440469037E+02  1.907348633E-06  0.00000E+00  9.000E+00
#rwgt            1           1   5.3819339134978481E-002           5      226531           0
</event>
<event>
      5   9999  3.79277E-02  1.47751E+02 -1.00000E+00  1.16654E-01
      21    -1     0     0   502   512  0.000000000E+00  0.000000000E+00  1.334244111E+02  1.334244111E+02  0.000000000E+00  0.00000E+00  9.000E+00
      21    -1     0     0   501   502  0.000000000E+00  0.000000000E+00 -6.933349573E+02  6.933349573E+02  0.000000000E+00  0.00000E+00  9.000E+00
      25     1     1     2     0     0  1.679916819E+01  2.294439099E+02 -1.654048653E+02  3.096941868E+02  1.250000000E+02  0.00000E+00  9.000E+00
      25     1     1     2     0     0  3.557109719E+01 -9.128590440E+01 -3.061982641E+02  3.449359306E+02  1.250000000E+02  0.00000E+00  9.000E+00
      21     1     1     2   501   512 -5.237026538E+01 -1.381580055E+02 -8.830741675E+01  1.721292509E+02  3.162979880E-06  0.00000E+00  9.000E+00
#rwgt            1           1   2.4461134988195715E-002           5      226716           0
</event>
<event>
      5   9999  3.79277E-02  8.46035E+01 -1.00000E+00  1.27184E-01
      21    -1     0     0   511   501  0.000000000E+00  0.000000000E+00  1.032020606E+03  1.032020606E+03  0.000000000E+00  0.00000E+00  9.000E+00
      21    -1     0     0   501   502  0.000000000E+00  0.000000000E+00 -1.020358210E+02  1.020358210E+02  0.000000000E+00  0.00000E+00  9.000E+00
      25     1     1     2     0     0  5.188874410E+01  1.704952684E+02  1.027224183E+02  2.407030817E+02  1.250000000E+02  0.00000E+00  9.000E+00
      25     1     1     2     0     0 -8.632975819E+01 -9.321931779E+01  2.343101613E+02  2.943958560E+02  1.250000000E+02  0.00000E+00  9.000E+00
      21     1     1     2   511   502  3.444101409E+01 -7.727595061E+01  5.929522060E+02  5.989574898E+02  7.629394531E-06  0.00000E+00  9.000E+00
#rwgt            1           1   4.7401149018914797E-002           5      226768           0
</event>
<event>
      5   9999  3.79277E-02  9.06121E+01 -1.00000E+00  1.25785E-01
       2    -1     0     0   502     0  0.000000000E+00  0.000000000E+00  4.353563165E+02  4.353563165E+02  0.000000000E+00  0.00000E+00  9.000E+00
      21    -1     0     0   501   502  0.000000000E+00  0.000000000E+00 -6.084771822E+02  6.084771822E+02  0.000000000E+00  0.00000E+00  9.000E+00
      25     1     1     2     0     0  2.601697677E+01 -2.696990511E+02 -4.274282007E+01  3.014405579E+02  1.250000000E+02  0.00000E+00  9.000E+00
      25     1     1     2     0     0 -1.117452368E+02  2.403524294E+02 -3.782420876E+02  4.784854910E+02  1.250000000E+02  0.00000E+00  9.000E+00
       2     1     1     2   501     0  8.572826002E+01  2.934662173E+01  2.478640420E+02  2.639074499E+02  4.672030912E-06  0.00000E+00  9.000E+00
#rwgt            1           1   3.7889710305413479E-002           5      227015           0
</event>
<event>
      5   9999  3.79277E-02  2.97177E+01 -1.00000E+00  1.53326E-01
       2    -1     0     0   502     0  0.000000000E+00  0.000000000E+00  2.352861117E+03  2.352861117E+03  0.000000000E+00  0.00000E+00  9.000E+00
      21    -1     0     0   501   502  0.000000000E+00  0.000000000E+00 -5.535901421E+02  5.535901421E+02  0.000000000E+00  0.00000E+00  9.000E+00
      25     1     1     2     0     0 -8.414186121E+01  2.789244410E+02  6.066051740E+01  3.227745265E+02  1.250000000E+02  0.00000E+00  9.000E+00
      25     1     1     2     0     0  5.455254851E+01 -2.816843483E+02 -3.644614678E+02  4.803948523E+02  1.250000000E+02  0.00000E+00  9.000E+00
       2     1     1     2   501     0  2.958931270E+01  2.759907233E+00  2.103071926E+03  2.103281881E+03  0.000000000E+00  0.00000E+00  9.000E+00
#rwgt            1           1   4.0179824094568391E-002           5      227164           0
</event>
<event>
      5   9999  3.79277E-02  2.30172E+01 -1.00000E+00  1.61487E-01
      21    -1     0     0   511   501  0.000000000E+00  0.000000000E+00  2.859562734E+02  2.859562734E+02  0.000000000E+00  0.00000E+00  9.000E+00
      21    -1     0     0   501   502  0.000000000E+00  0.000000000E+00 -1.698838651E+02  1.698838651E+02  0.000000000E+00  0.00000E+00  9.000E+00
      25     1     1     2     0     0 -7.854113164E+01  2.345452891E+01 -9.319854069E+01  1.761527527E+02  1.250000000E+02  0.00000E+00  9.000E+00
      25     1     1     2     0     0  1.007488438E+02 -1.740403892E+01  1.723866898E+02  2.362105013E+02  1.250000000E+02  0.00000E+00  9.000E+00
      21     1     1     2   511   502 -2.220771218E+01 -6.050489990E+00  3.688425922E+01  4.347688452E+01  6.743495762E-07  0.00000E+00  9.000E+00
#rwgt            1           1   4.0510717183594232E-002           5      227357           0
</event>
<event>
      5   9999  3.79277E-02  3.79794E+01 -1.00000E+00  1.46250E-01
       2    -1     0     0   502     0  0.000000000E+00  0.000000000E+00  1.184406083E+03  1.184406083E+03  0.000000000E+00  0.00000E+00  9.000E+00
      21    -1     0     0   501   502  0.000000000E+00  0.000000000E+00 -5.033105873E+01  5.033105873E+01  0.000000000E+00  0.00000E+00  9.000E+00
      25     1     1     2     0     0  1.176591458E+02  1.219376862E+02  6.158383040E+02  6.508412176E+02  1.250000000E+02  0.00000E+00  9.000E+00
      25     1     1     2     0     0 -7.973195697E+01 -1.239289802E+02  2.658026976E+02  3.286208319E+02  1.250000000E+02  0.00000E+00  9.000E+00
       2     1     1     2   501     0 -3.792718885E+01  1.991293928E+00  2.524340222E+02  2.552750917E+02  2.697398305E-06  0.00000E+00  9.000E+00
#rwgt            1           1  0.23333489821242423                5      227516           0
</event>
<event>
      5   9999  3.79277E-02  4.48113E+01 -1.00000E+00  1.41846E-01
      21    -1     0     0   502   511  0.000000000E+00  0.000000000E+00  4.443171915E+02  4.443171915E+02  0.000000000E+00  0.00000E+00  9.000E+00
      21    -1     0     0   501   502  0.000000000E+00  0.000000000E+00 -1.505366946E+02  1.505366946E+02  0.000000000E+00  0.00000E+00  9.000E+00
      25     1     1     2     0     0 -8.225403903E+01  6.925441838E+01  1.886254954E+01  1.659599264E+02  1.250000000E+02  0.00000E+00  9.000E+00
      25     1     1     2     0     0  1.179729981E+02 -4.219511719E+01  2.950788403E+01  1.794262284E+02  1.250000000E+02  0.00000E+00  9.000E+00
      21     1     1     2   501   511 -3.571895911E+01 -2.705930118E+01  2.454100633E+02  2.494677314E+02  4.672030912E-06  0.00000E+00  9.000E+00
#rwgt            1           1   3.3948576700885018E-002           5      227637           0
</event>
<event>
      5   9999  3.79277E-02  6.76349E+01 -1.00000E+00  1.31981E-01
      21    -1     0     0   512   501  0.000000000E+00  0.000000000E+00  8.132334815E+01  8.132334815E+01  0.000000000E+00  0.00000E+00  9.000E+00
      21    -1     0     0   501   502  0.000000000E+00  0.000000000E+00 -7.091099365E+02  7.091099365E+02  0.000000000E+00  0.00000E+00  9.000E+00
      25     1     1     2     0     0 -2.984045262E+01  4.913607510E+01 -5.058662233E+01  1.465906301E+02  1.250000000E+02  0.00000E+00  9.000E+00
      25     1     1     2     0     0  5.907876366E+01 -1.101246206E+02 -5.365896074E+02  5.649523336E+02  1.250000000E+02  0.00000E+00  9.000E+00
      21     1     1     2   512   502 -2.923831104E+01  6.098854551E+01 -4.061035860E+01  7.889032096E+01  6.743495762E-07  0.00000E+00  9.000E+00
#rwgt            1           1   1.7977227099468474E-002           5      227751           0
</event>
<event>
      5   9999  3.79277E-02  2.74198E+01 -1.00000E+00  1.55803E-01
      21    -1     0     0   511   501  0.000000000E+00  0.000000000E+00  2.405690491E+02  2.405690491E+02  0.000000000E+00  0.00000E+00  9.000E+00
      21    -1     0     0   501   502  0.000000000E+00  0.000000000E+00 -4.327885604E+02  4.327885604E+02  0.000000000E+00  0.00000E+00  9.000E+00
      25     1     1     2     0     0  1.090919893E+02 -2.473253668E+01 -3.250005340E+02  3.657363909E+02  1.250000000E+02  0.00000E+00  9.000E+00
      25     1     1     2     0     0 -1.113278181E+02  5.206107248E+01  3.362448311E+00  1.753298161E+02  1.250000000E+02  0.00000E+00  9.000E+00
      21     1     1     2   511   502  2.235828814E+00 -2.732853580E+01  1.294185744E+02  1.322914026E+02  1.907348633E-06  0.00000E+00  9.000E+00
#rwgt            1           1   4.2410864352414304E-003           5      227803           0
</event>
<event>
      5   9999 -3.79277E-02  1.22766E+01 -1.00000E+00  1.85994E-01
      21    -1     0     0   502   512  0.000000000E+00  0.000000000E+00  9.057836208E+02  9.057836208E+02  0.000000000E+00  0.00000E+00  9.000E+00
      21    -1     0     0   501   502  0.000000000E+00  0.000000000E+00 -1.481344584E+02  1.481344584E+02  0.000000000E+00  0.00000E+00  9.000E+00
      25     1     1     2     0     0 -1.611636538E+02 -9.371514734E+01  2.773365440E+02  3.567867862E+02  1.250000000E+02  0.00000E+00  9.000E+00
      25     1     1     2     0     0  1.728305226E+02  8.989437376E+01  1.531521633E+01  2.319718600E+02  1.250000000E+02  0.00000E+00  9.000E+00
      21     1     1     2   501   512 -1.166686884E+01  3.820773573E+00  4.649974021E+02  4.651594330E+02  0.000000000E+00  0.00000E+00  9.000E+00
#rwgt            1           1 -0.13981285489894887                5      227936           0
</event>
<event>
      5   9999  3.79277E-02  2.13838E+01 -1.00000E+00  1.64007E-01
      21    -1     0     0   502   501  0.000000000E+00  0.000000000E+00  2.653643991E+03  2.653643991E+03  0.000000000E+00  0.00000E+00  9.000E+00
      21    -1     0     0   501   511  0.000000000E+00  0.000000000E+00 -2.954791073E+01  2.954791073E+01  0.000000000E+00  0.00000E+00  9.000E+00
      25     1     1     2     0     0 -1.574422586E+02  4.673841849E+01  2.119517076E+03  2.129542247E+03  1.250000000E+02  0.00000E+00  9.000E+00
      25     1     1     2     0     0  1.432181051E+02 -6.270532876E+01  4.848885778E+02  5.245810870E+02  1.250000000E+02  0.00000E+00  9.000E+00
      21     1     1     2   502   511  1.422415344E+01  1.596691026E+01  1.969042656E+01  2.906856829E+01  6.743495762E-07  0.00000E+00  9.000E+00
#rwgt            1           1   7.6751258396099892E-002           5      228177           0
</event>
<event>
      5   9999  3.79277E-02  2.07369E+01 -1.00000E+00  1.65083E-01
      21    -1     0     0   502   501  0.000000000E+00  0.000000000E+00  8.816778741E+02  8.816778741E+02  0.000000000E+00  0.00000E+00  9.000E+00
      21    -1     0     0   512   502  0.000000000E+00  0.000000000E+00 -1.382987781E+02  1.382987781E+02  0.000000000E+00  0.00000E+00  9.000E+00
      25     1     1     2     0     0  4.774561508E+00  1.281660153E+02  7.870146038E+02  8.071346298E+02  1.250000000E+02  0.00000E+00  9.000E+00
      25     1     1     2     0     0  1.278115904E+01 -1.392030271E+02 -4.079313100E+01  1.919112303E+02  1.250000000E+02  0.00000E+00  9.000E+00
      21     1     1     2   512   501 -1.755572055E+01  1.103701181E+01 -2.842376793E+00  2.093079214E+01  4.235705854E-07  0.00000E+00  9.000E+00
#rwgt            1           1   1.9739986480997933E-002           5      228307           0
</event>
<event>
      5   9999  3.79277E-02  2.90075E+00 -1.00000E+00  3.01374E-01
      21    -1     0     0   502   501  0.000000000E+00  0.000000000E+00  8.221851715E+02  8.221851715E+02  0.000000000E+00  0.00000E+00  9.000E+00
      21    -1     0     0   501   511  0.000000000E+00  0.000000000E+00 -2.315400624E+02  2.315400624E+02  0.000000000E+00  0.00000E+00  9.000E+00
      25     1     1     2     0     0 -2.104571942E+02 -1.358681697E+02  5.502554870E+02  6.173803455E+02  1.250000000E+02  0.00000E+00  9.000E+00
      25     1     1     2     0     0  2.124376578E+02  1.379876279E+02  1.546528869E+02  3.220448095E+02  1.250000000E+02  0.00000E+00  9.000E+00
      21     1     1     2   502   511 -1.980463647E+00 -2.119458273E+00 -1.142632647E+02  1.143000788E+02  1.348699152E-06  0.00000E+00  9.000E+00
#rwgt            1           1   4.6307464253922799E-002           5      228610           0
</event>
<event>
      5   9999  3.79277E-02  9.68346E+01 -1.00000E+00  1.24460E-01
      21    -1     0     0   502   501  0.000000000E+00  0.000000000E+00  1.551312487E+02  1.551312487E+02  0.000000000E+00  0.00000E+00  9.000E+00
       2    -1     0     0   501     0  0.000000000E+00  0.000000000E+00 -2.494593509E+03  2.494593509E+03  0.000000000E+00  0.00000E+00  9.000E+00
      25     1     1     2     0     0 -1.063446978E+02 -5.993707540E+01 -2.225777058E+00  1.747329443E+02  1.250000000E+02  0.00000E+00  9.000E+00
      25     1     1     2     0     0  1.797162412E+02 -3.257439661E+00 -1.088517052E+02  2.445040531E+02  1.250000000E+02  0.00000E+00  9.000E+00
       2     1     1     2   502     0 -7.337154341E+01  6.319451507E+01 -2.228384778E+03  2.230487760E+03  3.051757812E-05  0.00000E+00  9.000E+00
#rwgt            1           1   2.3739717324818315E-002           5      229249           0
</event>
<event>
      5   9999  3.79277E-02  2.90550E+01 -1.00000E+00  1.54012E-01
      21    -1     0     0   502   511  0.000000000E+00  0.000000000E+00  1.073404258E+02  1.073404258E+02  0.000000000E+00  0.00000E+00  9.000E+00
      21    -1     0     0   501   502  0.000000000E+00  0.000000000E+00 -5.998821780E+02  5.998821780E+02  0.000000000E+00  0.00000E+00  9.000E+00
      25     1     1     2     0     0  1.811834627E+01  8.310320005E+01 -4.326553106E+02  4.583121579E+02  1.250000000E+02  0.00000E+00  9.000E+00
      25     1     1     2     0     0 -4.086842557E+01 -1.011760782E+02 -1.041917032E+02  1.959278898E+02  1.250000000E+02  0.00000E+00  9.000E+00
      21     1     1     2   501   511  2.275007930E+01  1.807287810E+01  4.430526166E+01  5.298255602E+01  1.168007728E-06  0.00000E+00  9.000E+00
#rwgt            1           1   3.4663697031087633E-002           5      229350           0
</event>
<event>
      5   9999  3.79277E-02  1.57571E+01 -1.00000E+00  1.75392E-01
      21    -1     0     0   502   501  0.000000000E+00  0.000000000E+00  4.581305845E+02  4.581305845E+02  0.000000000E+00  0.00000E+00  9.000E+00
      21    -1     0     0   512   502  0.000000000E+00  0.000000000E+00 -2.087464363E+02  2.087464363E+02  0.000000000E+00  0.00000E+00  9.000E+00
      25     1     1     2     0     0  1.576557643E+02 -1.078431488E+02  2.053054944E+02  3.070192678E+02  1.250000000E+02  0.00000E+00  9.000E+00
      25     1     1     2     0     0 -1.674699758E+02  1.201706278E+02  1.290526811E+02  2.734351241E+02  1.250000000E+02  0.00000E+00  9.000E+00
      21     1     1     2   512   501  9.814211412E+00 -1.232747906E+01 -8.497402728E+01  8.642262897E+01  9.536743164E-07  0.00000E+00  9.000E+00
#rwgt            1           1   1.7840089580403291E-002           5      229590           0
</event>
<event>
      5   9999  3.79277E-02  9.28171E+01 -1.00000E+00  1.25302E-01
      21    -1     0     0   502   501  0.000000000E+00  0.000000000E+00  2.185985791E+03  2.185985791E+03  0.000000000E+00  0.00000E+00  9.000E+00
      21    -1     0     0   511   502  0.000000000E+00  0.000000000E+00 -2.290648735E+02  2.290648735E+02  0.000000000E+00  0.00000E+00  9.000E+00
      25     1     1     2     0     0 -1.320242925E+02  1.743289089E+02  1.287318115E+03  1.311729359E+03  1.250000000E+02  0.00000E+00  9.000E+00
      25     1     1     2     0     0  1.996883076E+02 -1.107947403E+02  8.562051527E+02  8.949095810E+02  1.250000000E+02  0.00000E+00  9.000E+00
      21     1     1     2   511   501 -6.766401512E+01 -6.353416858E+01 -1.866023505E+02  2.084117241E+02  0.000000000E+00  0.00000E+00  9.000E+00
#rwgt            1           1  0.11226955195599493                5      229767           0
</event>
<event>
      5   9999  3.79277E-02  3.90011E+01 -1.00000E+00  1.45525E-01
      21    -1     0     0   502   501  0.000000000E+00  0.000000000E+00  1.423151244E+02  1.423151244E+02  0.000000000E+00  0.00000E+00  9.000E+00
      21    -1     0     0   512   502  0.000000000E+00  0.000000000E+00 -5.811749815E+02  5.811749815E+02  0.000000000E+00  0.00000E+00  9.000E+00
      25     1     1     2     0     0 -1.159627807E+02 -1.055504405E+02 -3.242736444E+02  3.812697975E+02  1.250000000E+02  0.00000E+00  9.000E+00
      25     1     1     2     0     0  8.281821345E+01  1.261057277E+02  2.479305851E+01  1.974872320E+02  1.250000000E+02  0.00000E+00  9.000E+00
      21     1     1     2   512   501  3.314456722E+01 -2.055528723E+01 -1.393792712E+02  1.447330764E+02  2.697398305E-06  0.00000E+00  9.000E+00
#rwgt            1           1   4.1210815485162554E-002           5      229941           0
</event>
<event>
      5   9999  3.79277E-02  9.50229E+00 -1.00000E+00  1.98356E-01
      21    -1     0     0   502   511  0.000000000E+00  0.000000000E+00  9.987210619E+01  9.987210619E+01  0.000000000E+00  0.00000E+00  9.000E+00
      21    -1     0     0   501   502  0.000000000E+00  0.000000000E+00 -5.461204609E+02  5.461204609E+02  0.000000000E+00  0.00000E+00  9.000E+00
      25     1     1     2     0     0  8.444448399E+00 -1.835108939E+02 -1.988018645E+02  2.981522065E+02  1.250000000E+02  0.00000E+00  9.000E+00
      25     1     1     2     0     0 -1.740062729E+01  1.803359246E+02 -2.541467813E+02  3.362133459E+02  1.250000000E+02  0.00000E+00  9.000E+00
      21     1     1     2   501   511  8.956178887E+00  3.174969249E+00  6.700291100E+00  1.162701470E+01  2.230201594E-07  0.00000E+00  9.000E+00
#rwgt            1           1   1.1663561935929288E-002           5      230064           0
</event>
<event>
      5   9999  3.79277E-02  4.77111E+01 -1.00000E+00  1.40247E-01
      21    -1     0     0   502   501  0.000000000E+00  0.000000000E+00  4.169923265E+01  4.169923265E+01  0.000000000E+00  0.00000E+00  9.000E+00
       2    -1     0     0   501     0  0.000000000E+00  0.000000000E+00 -1.779518419E+03  1.779518419E+03  0.000000000E+00  0.00000E+00  9.000E+00
      25     1     1     2     0     0  2.986624121E+01 -1.314371043E+02 -2.874579071E+02  3.412107166E+02  1.250000000E+02  0.00000E+00  9.000E+00
      25     1     1     2     0     0  8.325675135E+00  1.028411659E+02 -4.464284912E+02  4.749410701E+02  1.250000000E+02  0.00000E+00  9.000E+00
       2     1     1     2   502     0 -3.819191635E+01  2.859593836E+01 -1.003932788E+03  1.005065865E+03  0.000000000E+00  0.00000E+00  9.000E+00
#rwgt            1           1   5.0848978339010101E-002           5      230414           0
</event>
<event>
      5   9999  3.79277E-02  3.56920E+01 -1.00000E+00  1.47978E-01
      21    -1     0     0   502   501  0.000000000E+00  0.000000000E+00  5.085214934E+01  5.085214934E+01  0.000000000E+00  0.00000E+00  9.000E+00
      21    -1     0     0   501   511  0.000000000E+00  0.000000000E+00 -1.214450512E+03  1.214450512E+03  0.000000000E+00  0.00000E+00  9.000E+00
      25     1     1     2     0     0  1.780753019E+02 -4.306435802E+01 -3.963541236E+02  4.541882246E+02  1.250000000E+02  0.00000E+00  9.000E+00
      25     1     1     2     0     0 -1.514755162E+02  6.686293002E+01 -4.975698451E+02  5.390883361E+02  1.250000000E+02  0.00000E+00  9.000E+00
      21     1     1     2   502   511 -2.659978568E+01 -2.379857200E+01 -2.696743941E+02  2.720261006E+02  0.000000000E+00  0.00000E+00  9.000E+00
#rwgt            1           1   3.9499907258239299E-002           5      230491           0
</event>
<event>
      5   9999  3.79277E-02  8.35424E+01 -1.00000E+00  1.27445E-01
      21    -1     0     0   512   501  0.000000000E+00  0.000000000E+00  1.167212162E+03  1.167212162E+03  0.000000000E+00  0.00000E+00  9.000E+00
      21    -1     0     0   501   502  0.000000000E+00  0.000000000E+00 -2.678012717E+02  2.678012717E+02  0.000000000E+00  0.00000E+00  9.000E+00
      25     1     1     2     0     0 -1.848213644E+02  2.699740345E+02 -4.041346494E+01  3.525665387E+02  1.250000000E+02  0.00000E+00  9.000E+00
      25     1     1     2     0     0  2.521271522E+02 -2.204840241E+02  4.011542545E+02  5.373369907E+02  1.250000000E+02  0.00000E+00  9.000E+00
      21     1     1     2   512   502 -6.730578776E+01 -4.949001047E+01  5.386701009E+02  5.451099044E+02  7.629394531E-06  0.00000E+00  9.000E+00
#rwgt            1           1   8.8542336724792628E-002           5      230662           0
</event>
<event>
      5   9999  3.79277E-02  7.04333E+01 -1.00000E+00  1.31085E-01
      21    -1     0     0   502   501  0.000000000E+00  0.000000000E+00  1.524836999E+02  1.524836999E+02  0.000000000E+00  0.00000E+00  9.000E+00
      21    -1     0     0   501   511  0.000000000E+00  0.000000000E+00 -3.301631745E+02  3.301631745E+02  0.000000000E+00  0.00000E+00  9.000E+00
      25     1     1     2     0     0 -1.121757921E+01  1.002361714E+02  4.703385545E+01  1.673628026E+02  1.250000000E+02  0.00000E+00  9.000E+00
      25     1     1     2     0     0 -3.965070895E+01 -5.152005032E+01 -1.906043163E+02  2.370263692E+02  1.250000000E+02  0.00000E+00  9.000E+00
      21     1     1     2   502   511  5.086828816E+01 -4.871612110E+01 -3.410901377E+01  7.825770259E+01  1.430511475E-06  0.00000E+00  9.000E+00
#rwgt            1           1   3.1206237752386869E-002           5      230749           0
</event>
<event>
      5   9999  3.79277E-02  1.34288E+02 -1.00000E+00  1.18330E-01
      21    -1     0     0   502   501  0.000000000E+00  0.000000000E+00  5.931131418E+01  5.931131418E+01  0.000000000E+00  0.00000E+00  9.000E+00
       2    -1     0     0   501     0  0.000000000E+00  0.000000000E+00 -1.270840327E+03  1.270840327E+03  0.000000000E+00  0.00000E+00  9.000E+00
      25     1     1     2     0     0 -4.936736247E+01  1.003552469E+02 -2.558714783E+02  3.059469325E+02  1.250000000E+02  0.00000E+00  9.000E+00
      25     1     1     2     0     0 -7.878543901E+01 -1.404830051E+02 -3.612068096E+02  4.147746128E+02  1.250000000E+02  0.00000E+00  9.000E+00
       2     1     1     2   502     0  1.281528015E+02  4.012775818E+01 -5.944507250E+02  6.094300960E+02  1.321449896E-05  0.00000E+00  9.000E+00
#rwgt            1           1  0.10179192198252796                5      230857           0
</event>
<event>
      5   9999  3.79277E-02  5.92304E+01 -1.00000E+00  1.35004E-01
       2    -1     0     0   502     0  0.000000000E+00  0.000000000E+00  1.649904696E+03  1.649904696E+03  0.000000000E+00  0.00000E+00  9.000E+00
      21    -1     0     0   501   502  0.000000000E+00  0.000000000E+00 -3.077624395E+02  3.077624395E+02  0.000000000E+00  0.00000E+00  9.000E+00
      25     1     1     2     0     0  1.251487257E+02  9.313125608E+01 -1.904331870E+02  2.760895382E+02  1.250000000E+02  0.00000E+00  9.000E+00
      25     1     1     2     0     0 -6.596179431E+01 -9.086318808E+01  2.155990096E+01  1.694016133E+02  1.250000000E+02  0.00000E+00  9.000E+00
       2     1     1     2   501     0 -5.918693143E+01 -2.268068002E+00  1.511015543E+03  1.512175984E+03  2.157918644E-05  0.00000E+00  9.000E+00
#rwgt            1           1   2.8443456206745332E-002           5      230969           0
</event>
<event>
      5   9999  3.79277E-02  7.27278E+01 -1.00000E+00  1.30385E-01
      21    -1     0     0   502   501  0.000000000E+00  0.000000000E+00  1.459322553E+02  1.459322553E+02  0.000000000E+00  0.00000E+00  9.000E+00
      21    -1     0     0   501   511  0.000000000E+00  0.000000000E+00 -3.880510814E+02  3.880510814E+02  0.000000000E+00  0.00000E+00  9.000E+00
      25     1     1     2     0     0 -5.644271221E+01 -7.052128191E+01  6.464700897E+01  1.672222077E+02  1.250000000E+02  0.00000E+00  9.000E+00
      25     1     1     2     0     0 -2.958431872E+00  2.855891819E+01 -1.924260013E+02  2.312512273E+02  1.250000000E+02  0.00000E+00  9.000E+00
      21     1     1     2   502   511  5.940114409E+01  4.196236372E+01 -1.143398337E+02  1.355099017E+02  1.907348633E-06  0.00000E+00  9.000E+00
#rwgt            1           1   4.6742880559793032E-002           5      231058           0
</event>
<event>
      5   9999  3.79277E-02  5.44763E+01 -1.00000E+00  1.36984E-01
      21    -1     0     0   502   501  0.000000000E+00  0.000000000E+00  3.465718133E+02  3.465718133E+02  0.000000000E+00  0.00000E+00  9.000E+00
      21    -1     0     0   501   512  0.000000000E+00  0.000000000E+00 -3.843457965E+02  3.843457965E+02  0.000000000E+00  0.00000E+00  9.000E+00
      25     1     1     2     0     0  5.060784125E+01  2.869668096E+02 -5.342179429E+01  3.215431410E+02  1.250000000E+02  0.00000E+00  9.000E+00
      25     1     1     2     0     0 -1.019862938E+02 -3.050753918E+02  4.410792535E+01  3.479119255E+02  1.250000000E+02  0.00000E+00  9.000E+00
      21     1     1     2   502   512  5.137845250E+01  1.810858223E+01 -2.846011423E+01  6.146254334E+01  1.305872339E-06  0.00000E+00  9.000E+00
#rwgt            1           1   4.0388120600510058E-002           5      231291           0
</event>
<event>
      5   9999  3.79277E-02  1.03200E+02 -1.00000E+00  1.23216E-01
      21    -1     0     0   502   501  0.000000000E+00  0.000000000E+00  1.835427789E+03  1.835427789E+03  0.000000000E+00  0.00000E+00  9.000E+00
      21    -1     0     0   501   511  0.000000000E+00  0.000000000E+00 -9.413831518E+01  9.413831518E+01  0.000000000E+00  0.00000E+00  9.000E+00
      25     1     1     2     0     0  2.705542083E+01  4.682284230E+01  1.389277447E+03  1.395937391E+03  1.250000000E+02  0.00000E+00  9.000E+00
      25     1     1     2     0     0 -1.286124985E+02 -2.848133059E+01  3.846735706E+02  4.253834939E+02  1.250000000E+02  0.00000E+00  9.000E+00
      21     1     1     2   502   511  1.015570777E+02 -1.834151171E+01 -3.266154381E+01  1.082452194E+02  2.477718555E-06  0.00000E+00  9.000E+00
#rwgt            1           1   3.6915406658759989E-002           5      231490           0
</event>
<event>
      5   9999 -3.79277E-02  4.61415E+01 -1.00000E+00  1.41095E-01
      21    -1     0     0   502   501  0.000000000E+00  0.000000000E+00  1.628384770E+02  1.628384770E+02  0.000000000E+00  0.00000E+00  9.000E+00
      21    -1     0     0   501   512  0.000000000E+00  0.000000000E+00 -5.933175142E+02  5.933175142E+02  0.000000000E+00  0.00000E+00  9.000E+00
      25     1     1     2     0     0 -2.635852218E+02  9.893809129E+00 -2.353131885E+02  3.749297978E+02  1.250000000E+02  0.00000E+00  9.000E+00
      25     1     1     2     0     0  2.488148979E+02  3.381973055E+01 -1.576829994E+02  3.217787375E+02  1.250000000E+02  0.00000E+00  9.000E+00
      21     1     1     2   502   512  1.477032386E+01 -4.371353968E+01 -3.748284937E+01  5.944745592E+01  1.066240300E-06  0.00000E+00  9.000E+00
#rwgt            1           1 -0.14747783655492991                5      231609           0
</event>
<event>
      5   9999  3.79277E-02  1.08759E+01 -1.00000E+00  1.91634E-01
      21    -1     0     0   502   501  0.000000000E+00  0.000000000E+00  1.654954700E+02  1.654954700E+02  0.000000000E+00  0.00000E+00  9.000E+00
      21    -1     0     0   511   502  0.000000000E+00  0.000000000E+00 -2.938003153E+02  2.938003153E+02  0.000000000E+00  0.00000E+00  9.000E+00
      25     1     1     2     0     0  4.308889542E+01  1.592827969E+02 -1.093071745E+02  2.340955376E+02  1.250000000E+02  0.00000E+00  9.000E+00
      25     1     1     2     0     0 -3.689498994E+01 -1.682225827E+02 -1.409138407E+01  2.132689493E+02  1.250000000E+02  0.00000E+00  9.000E+00
      21     1     1     2   511   501 -6.193905478E+00  8.939785764E+00 -4.906286673E+00  1.193129848E+01  1.460009660E-07  0.00000E+00  9.000E+00
#rwgt            1           1   3.3884868555341133E-002           5      231711           0
</event>
<event>
      5   9999  3.79277E-02  7.65347E+00 -1.00000E+00  2.10217E-01
      21    -1     0     0   502   501  0.000000000E+00  0.000000000E+00  1.566679846E+03  1.566679846E+03  0.000000000E+00  0.00000E+00  9.000E+00
      21    -1     0     0   512   502  0.000000000E+00  0.000000000E+00 -2.935398890E+01  2.935398890E+01  0.000000000E+00  0.00000E+00  9.000E+00
      25     1     1     2     0     0 -1.515523153E+01 -7.330549284E+01  1.337265911E+03  1.345179725E+03  1.250000000E+02  0.00000E+00  9.000E+00
      25     1     1     2     0     0  1.663250487E+01  6.579594352E+01  1.960569602E+02  2.422170061E+02  1.250000000E+02  0.00000E+00  9.000E+00
      21     1     1     2   512   501 -1.477273346E+00  7.509549315E+00  4.002986416E+00  8.637104127E+00  3.318646170E-07  0.00000E+00  9.000E+00
#rwgt            1           1   6.2215289622026104E-002           5      232013           0
</event>
<event>
      5   9999  3.79277E-02  4.60724E+01 -1.00000E+00  1.41133E-01
      21    -1     0     0   502   511  0.000000000E+00  0.000000000E+00  4.751047031E+02  4.751047031E+02  0.000000000E+00  0.00000E+00  9.000E+00
      21    -1     0     0   501   502  0.000000000E+00  0.000000000E+00 -1.639554939E+02  1.639554939E+02  0.000000000E+00  0.00000E+00  9.000E+00
      25     1     1     2     0     0 -4.154157776E+01  1.311206904E+02  1.443542935E+02  2.353327435E+02  1.250000000E+02  0.00000E+00  9.000E+00
      25     1     1     2     0     0  6.186599418E+01 -8.977361167E+01 -5.688653718E+01  1.753504511E+02  1.250000000E+02  0.00000E+00  9.000E+00
      21     1     1     2   501   511 -2.032441642E+01 -4.134707869E+01  2.236814529E+02  2.283770024E+02  0.000000000E+00  0.00000E+00  9.000E+00
#rwgt            1           1   3.6980899115296950E-002           5      232245           0
</event>
<event>
      5   9999  3.79277E-02  2.37058E+02 -1.00000E+00  1.09025E-01
      21    -1     0     0   512   501  0.000000000E+00  0.000000000E+00  9.105901613E+02  9.105901613E+02  0.000000000E+00  0.00000E+00  9.000E+00
      21    -1     0     0   501   502  0.000000000E+00  0.000000000E+00 -3.324023068E+02  3.324023068E+02  0.000000000E+00  0.00000E+00  9.000E+00
      25     1     1     2     0     0 -1.435042290E+00  2.145923690E+02 -1.496087224E+02  2.899305331E+02  1.250000000E+02  0.00000E+00  9.000E+00
      25     1     1     2     0     0  2.301395637E+02 -1.522169653E+02  1.708813360E+02  3.477925449E+02  1.250000000E+02  0.00000E+00  9.000E+00
      21     1     1     2   512   502 -2.287045214E+02 -6.237540370E+01  5.569152409E+02  6.052693902E+02  7.629394531E-06  0.00000E+00  9.000E+00
#rwgt            1           1   3.7570668602182208E-002           5      232438           0
</event>
<event>
      5   9999 -5.61216E-02  3.04139E+02 -1.00000E+00  1.05399E-01
      21    -1     0     0   511   501  0.000000000E+00  0.000000000E+00  1.292366872E+03  1.292366872E+03  0.000000000E+00  0.00000E+00  9.000E+00
      21    -1     0     0   501   502  0.000000000E+00  0.000000000E+00 -1.703549949E+02  1.703549949E+02  0.000000000E+00  0.00000E+00  9.000E+00
      25     1     1     2     0     0  1.279032913E+02 -6.244633657E+01  3.076016540E+02  3.612514006E+02  1.250000000E+02  0.00000E+00  9.000E+00
      25     1     1     2     0     0 -3.983205135E+02 -7.674709030E+01  3.708373104E+02  5.636440882E+02  1.250000000E+02  0.00000E+00  9.000E+00
      21     1     1     2   511   502  2.704172222E+02  1.391934269E+02  4.435729122E+02  5.378263778E+02  5.394796609E-06  0.00000E+00  9.000E+00
#rwgt            1           1 -0.69393942303543121                5      232528           0
</event>
<event>
      5   9999  3.79277E-02  1.40578E+01 -1.00000E+00  1.80079E-01
      21    -1     0     0   502   501  0.000000000E+00  0.000000000E+00  2.496941334E+02  2.496941334E+02  0.000000000E+00  0.00000E+00  9.000E+00
      21    -1     0     0   501   512  0.000000000E+00  0.000000000E+00 -2.910596491E+02  2.910596491E+02  0.000000000E+00  0.00000E+00  9.000E+00
      25     1     1     2     0     0 -1.869991972E+02 -1.100378292E+02 -7.143250745E+01  2.603932156E+02  1.250000000E+02  0.00000E+00  9.000E+00
      25     1     1     2     0     0  2.010570269E+02  1.100605918E+02  3.859785739E+01  2.639167606E+02  1.250000000E+02  0.00000E+00  9.000E+00
      21     1     1     2   502   512 -1.405782972E+01 -2.276260246E-02 -8.530865646E+00  1.644380623E+01  2.384185791E-07  0.00000E+00  9.000E+00
#rwgt            1           1   3.3866308050706978E-002           5      232656           0
</event>
<event>
      5   9999  3.79277E-02  4.56566E+01 -1.00000E+00  1.41365E-01
      21    -1     0     0   502   501  0.000000000E+00  0.000000000E+00  2.454142576E+02  2.454142576E+02  0.000000000E+00  0.00000E+00  9.000E+00
      21    -1     0     0   511   502  0.000000000E+00  0.000000000E+00 -3.653605873E+02  3.653605873E+02  0.000000000E+00  0.00000E+00  9.000E+00
      25     1     1     2     0     0  1.324771412E+02 -6.928066929E+01 -1.763047195E+02  2.627895702E+02  1.250000000E+02  0.00000E+00  9.000E+00
      25     1     1     2     0     0 -1.381209440E+02  2.397424499E+01  1.522499600E+02  2.417792587E+02  1.250000000E+02  0.00000E+00  9.000E+00
      21     1     1     2   511   501  5.643802765E+00  4.530642430E+01 -9.589157029E+01  1.062060161E+02  0.000000000E+00  0.00000E+00  9.000E+00
#rwgt            1           1   4.2560946987127854E-002           5      233000           0
</event>
<event>
      5   9999  3.79277E-02  3.04966E+01 -1.00000E+00  1.52546E-01
      21    -1     0     0   512   501  0.000000000E+00  0.000000000E+00  4.341034416E+02  4.341034416E+02  0.000000000E+00  0.00000E+00  9.000E+00
      21    -1     0     0   501   502  0.000000000E+00  0.000000000E+00 -2.289928767E+02  2.289928767E+02  0.000000000E+00  0.00000E+00  9.000E+00
      25     1     1     2     0     0 -2.195056073E+01 -2.280873887E+02 -1.839354378E+01  2.616658298E+02  1.250000000E+02  0.00000E+00  9.000E+00
      25     1     1     2     0     0  4.592916998E+01  2.092440531E+02  8.899934389E+01  2.635117561E+02  1.250000000E+02  0.00000E+00  9.000E+00
      21     1     1     2   512   502 -2.397860925E+01  1.884333567E+01  1.345047648E+02  1.379187324E+02  1.907348633E-06  0.00000E+00  9.000E+00
#rwgt            1           1   3.7116972512921648E-002           5      233222           0
</event>
<event>
      5   9999  3.79277E-02  4.82595E+01 -1.00000E+00  1.39959E-01
      21    -1     0     0   511   501  0.000000000E+00  0.000000000E+00  2.918805792E+02  2.918805792E+02  0.000000000E+00  0.00000E+00  9.000E+00
      21    -1     0     0   501   502  0.000000000E+00  0.000000000E+00 -1.359848469E+02  1.359848469E+02  0.000000000E+00  0.00000E+00  9.000E+00
      25     1     1     2     0     0 -1.164242763E+02  7.415744156E+01  2.891924476E+01  1.884549308E+02  1.250000000E+02  0.00000E+00  9.000E+00
      25     1     1     2     0     0  7.161200828E+01 -5.624556088E+01  9.441295580E+01  1.811922986E+02  1.250000000E+02  0.00000E+00  9.000E+00
      21     1     1     2   511   502  4.481226797E+01 -1.791188068E+01  3.256353166E+01  5.821819668E+01  6.743495762E-07  0.00000E+00  9.000E+00
#rwgt            1           1   3.9098523952862355E-002           5      233422           0
</event>
<event>
      5   9999  3.79277E-02  2.23854E+01 -1.00000E+00  1.62430E-01
      21    -1     0     0   512   501  0.000000000E+00  0.000000000E+00  1.651440824E+02  1.651440824E+02  0.000000000E+00  0.00000E+00  9.000E+00
      21    -1     0     0   501   502  0.000000000E+00  0.000000000E+00 -2.603101484E+02  2.603101484E+02  0.000000000E+00  0.00000E+00  9.000E+00
      25     1     1     2     0     0 -1.495356421E+02 -5.069541136E+00 -3.716197766E+01  1.984757443E+02  1.250000000E+02  0.00000E+00  9.000E+00
      25     1     1     2     0     0  1.407258060E+02  2.564852055E+01 -6.891073428E+01  2.020774317E+02  1.250000000E+02  0.00000E+00  9.000E+00
      21     1     1     2   512   502  8.809836008E+00 -2.057897941E+01  1.090664597E+01  2.490105480E+01  5.717076687E-07  0.00000E+00  9.000E+00
#rwgt            1           1   2.9817052620771289E-002           5      233538           0
</event>
<event>
      5   9999  3.79277E-02  4.06064E+01 -1.00000E+00  1.44436E-01
      21    -1     0     0   502   501  0.000000000E+00  0.000000000E+00  1.426343260E+02  1.426343260E+02  0.000000000E+00  0.00000E+00  9.000E+00
      21    -1     0     0   511   502  0.000000000E+00  0.000000000E+00 -4.928503492E+02  4.928503492E+02  0.000000000E+00  0.00000E+00  9.000E+00
      25     1     1     2     0     0  4.668223276E+01  1.453735947E+02 -1.489054198E+00  1.973320303E+02  1.250000000E+02  0.00000E+00  9.000E+00
      25     1     1     2     0     0 -6.464583596E+01 -1.089567075E+02 -1.425826702E+02  2.280470698E+02  1.250000000E+02  0.00000E+00  9.000E+00
      21     1     1     2   511   501  1.796360320E+01 -3.641688726E+01 -2.061442989E+02  2.101055751E+02  2.697398305E-06  0.00000E+00  9.000E+00
#rwgt            1           1   6.0634501193233131E-002           5      233730           0
</event>
<event>
      5   9999  3.79277E-02  1.86361E+01 -1.00000E+00  1.68940E-01
      21    -1     0     0   502   501  0.000000000E+00  0.000000000E+00  7.503465235E+02  7.503465235E+02  0.000000000E+00  0.00000E+00  9.000E+00
      21    -1     0     0   501   512  0.000000000E+00  0.000000000E+00 -6.168889201E+01  6.168889201E+01  0.000000000E+00  0.00000E+00  9.000E+00
      25     1     1     2     0     0 -8.666181620E+01 -5.246334124E+01  1.985742410E+02  2.555766064E+02  1.250000000E+02  0.00000E+00  9.000E+00
      25     1     1     2     0     0  9.821585035E+01  3.784110389E+01  5.061362793E+02  5.318620457E+02  1.250000000E+02  0.00000E+00  9.000E+00
      21     1     1     2   502   512 -1.155403415E+01  1.462223734E+01 -1.605288883E+01  2.459676340E+01  9.536743164E-07  0.00000E+00  9.000E+00
#rwgt            1           1   3.3775707242805680E-002           5      233840           0
</event>
<event>
      5   9999  3.79277E-02  2.59592E+01 -1.00000E+00  1.57536E-01
      21    -1     0     0   511   501  0.000000000E+00  0.000000000E+00  8.114519965E+01  8.114519965E+01  0.000000000E+00  0.00000E+00  9.000E+00
      21    -1     0     0   501   502  0.000000000E+00  0.000000000E+00 -5.755979467E+02  5.755979467E+02  0.000000000E+00  0.00000E+00  9.000E+00
      25     1     1     2     0     0  4.430067169E+01  6.906801084E+01 -3.272119346E+01  1.530640916E+02  1.250000000E+02  0.00000E+00  9.000E+00
      25     1     1     2     0     0 -2.180444872E+01 -8.202173494E+01 -4.509181143E+02  4.755577197E+02  1.250000000E+02  0.00000E+00  9.000E+00
      21     1     1     2   511   502 -2.249622297E+01  1.295372410E+01 -1.081343931E+01  2.812133506E+01  3.371747881E-07  0.00000E+00  9.000E+00
#rwgt            1           1   4.9264121868311181E-002           5      233990           0
</event>
<event>
      5   9999 -3.79277E-02  1.80403E+01 -1.00000E+00  1.70151E-01
      21    -1     0     0   512   501  0.000000000E+00  0.000000000E+00  3.776070592E+01  3.776070592E+01  0.000000000E+00  0.00000E+00  9.000E+00
      21    -1     0     0   501   502  0.000000000E+00  0.000000000E+00 -1.245272521E+03  1.245272521E+03  0.000000000E+00  0.00000E+00  9.000E+00
      25     1     1     2     0     0 -8.383088648E+01  1.255701547E+02 -7.175092968E+02  7.438010973E+02  1.250000000E+02  0.00000E+00  9.000E+00
      25     1     1     2     0     0  1.014999000E+02 -1.292116009E+02 -4.603232482E+02  5.045001093E+02  1.250000000E+02  0.00000E+00  9.000E+00
      21     1     1     2   512   502 -1.766901349E+01  3.641446141E+00 -2.967927049E+01  3.473202074E+01  4.768371582E-07  0.00000E+00  9.000E+00
#rwgt            1           1 -0.33179222125845431                5      234221           0
</event>
<event>
      5   9999  3.79277E-02  1.09999E+02 -1.00000E+00  1.21995E-01
       2    -1     0     0   502     0  0.000000000E+00  0.000000000E+00  1.777613131E+03  1.777613131E+03  0.000000000E+00  0.00000E+00  9.000E+00
      21    -1     0     0   501   502  0.000000000E+00  0.000000000E+00 -1.172699840E+03  1.172699840E+03  0.000000000E+00  0.00000E+00  9.000E+00
      25     1     1     2     0     0 -1.458963952E+02 -2.926444510E+02 -6.314787129E+02  7.220227820E+02  1.250000000E+02  0.00000E+00  9.000E+00
      25     1     1     2     0     0  4.848624752E+01  3.437423103E+02 -4.252547804E+02  5.630065011E+02  1.250000000E+02  0.00000E+00  9.000E+00
       2     1     1     2   501     0  9.741014768E+01 -5.109785928E+01  1.661646784E+03  1.665283688E+03  0.000000000E+00  0.00000E+00  9.000E+00
#rwgt            1           1   3.7761425531000245E-002           5      234402           0
</event>
<event>
      5   9999  3.79277E-02  1.01296E+02 -1.00000E+00  1.23577E-01
      21    -1     0     0   511   501  0.000000000E+00  0.000000000E+00  8.999504222E+02  8.999504222E+02  0.000000000E+00  0.00000E+00  9.000E+00
      21    -1     0     0   501   502  0.000000000E+00  0.000000000E+00 -1.149558937E+02  1.149558937E+02  0.000000000E+00  0.00000E+00  9.000E+00
      25     1     1     2     0     0  3.325117106E+01  1.846395583E+02  2.852676872E+02  3.635932621E+02  1.250000000E+02  0.00000E+00  9.000E+00
      25     1     1     2     0     0  5.310305458E+01 -1.316891408E+02  5.762697504E+01  1.977570036E+02  1.250000000E+02  0.00000E+00  9.000E+00
      21     1     1     2   511   502 -8.635422564E+01 -5.295041749E+01  4.420998662E+02  4.535560502E+02  0.000000000E+00  0.00000E+00  9.000E+00
#rwgt            1           1   2.4149285407684708E-002           5      234516           0
</event>
<event>
      5   9999  3.79277E-02  1.82425E+01 -1.00000E+00  1.69734E-01
      21    -1     0     0   502   501  0.000000000E+00  0.000000000E+00  2.056232025E+01  2.056232025E+01  0.000000000E+00  0.00000E+00  9.000E+00
       2    -1     0     0   501     0  0.000000000E+00  0.000000000E+00 -2.469324973E+03  2.469324973E+03  0.000000000E+00  0.00000E+00  9.000E+00
      25     1     1     2     0     0 -5.540666870E+01 -1.205159584E+02 -7.732900756E+02  7.944787827E+02  1.250000000E+02  0.00000E+00  9.000E+00
      25     1     1     2     0     0  6.952838039E+01  1.089675479E+02 -8.089396764E+02  8.286836080E+02  1.250000000E+02  0.00000E+00  9.000E+00
       2     1     1     2   502     0 -1.412171169E+01  1.154841047E+01 -8.665329004E+02  8.667249021E+02  1.078959322E-05  0.00000E+00  9.000E+00
#rwgt            1           1   9.3273513262293620E-002           5      234674           0
</event>
<event>
      5   9999  3.79277E-02  1.33989E+02 -1.00000E+00  1.18370E-01
      21    -1     0     0   502   501  0.000000000E+00  0.000000000E+00  2.946051713E+02  2.946051713E+02  0.000000000E+00  0.00000E+00  9.000E+00
      21    -1     0     0   511   502  0.000000000E+00  0.000000000E+00 -9.465929390E+02  9.465929390E+02  0.000000000E+00  0.00000E+00  9.000E+00
      25     1     1     2     0     0 -2.071605447E+02 -1.650914807E+02  5.733078530E+01  2.984669281E+02  1.250000000E+02  0.00000E+00  9.000E+00
      25     1     1     2     0     0  1.983512907E+02  3.139259748E+01 -1.654945074E+01  2.371236260E+02  1.250000000E+02  0.00000E+00  9.000E+00
      21     1     1     2   511   501  8.809254011E+00  1.336988832E+02 -6.927691023E+02  7.056075562E+02  1.525878906E-05  0.00000E+00  9.000E+00
#rwgt            1           1   4.6084624026913004E-002           5      234941           0
</event>
<event>
      5   9999  3.79277E-02  8.89788E+01 -1.00000E+00  1.26153E-01
      21    -1     0     0   502   501  0.000000000E+00  0.000000000E+00  7.638131211E+02  7.638131211E+02  0.000000000E+00  0.00000E+00  9.000E+00
      21    -1     0     0   501   512  0.000000000E+00  0.000000000E+00 -1.054730962E+02  1.054730962E+02  0.000000000E+00  0.00000E+00  9.000E+00
      25     1     1     2     0     0  1.593963189E+02 -1.507822766E+02  4.094889092E+02  4.810911017E+02  1.250000000E+02  0.00000E+00  9.000E+00
      25     1     1     2     0     0 -1.509189398E+02  6.220828097E+01  1.458240690E+02  2.520635946E+02  1.250000000E+02  0.00000E+00  9.000E+00
      21     1     1     2   502   512 -8.477379138E+00  8.857399559E+01  1.030270468E+02  1.361315210E+02  1.348699152E-06  0.00000E+00  9.000E+00
#rwgt            1           1  0.11172859865262462                5      234985           0
</event>
<event>
      5   9999  3.79277E-02  3.48795E+01 -1.00000E+00  1.48629E-01
      21    -1     0     0   511   501  0.000000000E+00  0.000000000E+00  3.112252531E+02  3.112252531E+02  0.000000000E+00  0.00000E+00  9.000E+00
      21    -1     0     0   501   502  0.000000000E+00  0.000000000E+00 -2.844471303E+02  2.844471303E+02  0.000000000E+00  0.00000E+00  9.000E+00
      25     1     1     2     0     0 -9.134827163E+01 -2.030155972E+01 -3.998224651E+00  1.561974579E+02  1.250000000E+02  0.00000E+00  9.000E+00
      25     1     1     2     0     0  5.647916857E+01  2.115260887E+01 -1.791779847E+02  2.266430664E+02  1.250000000E+02  0.00000E+00  9.000E+00
      21     1     1     2   511   502  3.486910305E+01 -8.510491509E-01  2.099543322E+02  2.128318591E+02  2.697398305E-06  0.00000E+00  9.000E+00
#rwgt            1           1   3.9955718394313181E-002           5      235117           0
</event>
<event>
      5   9999  3.79277E-02  4.15170E+01 -1.00000E+00  1.43845E-01
      21    -1     0     0   502   512  0.000000000E+00  0.000000000E+00  7.932577945E+01  7.932577945E+01  0.000000000E+00  0.00000E+00  9.000E+00
      21    -1     0     0   501   502  0.000000000E+00  0.000000000E+00 -9.554063369E+02  9.554063369E+02  0.000000000E+00  0.00000E+00  9.000E+00
      25     1     1     2     0     0  2.016698277E+02  1.865368693E+01 -4.225752162E+02  4.849881368E+02  1.250000000E+02  0.00000E+00  9.000E+00
      25     1     1     2     0     0 -1.693746241E+02 -4.474360595E+01 -4.598762288E+02  5.077409766E+02  1.250000000E+02  0.00000E+00  9.000E+00
      21     1     1     2   501   512 -3.229520358E+01  2.608991902E+01  6.370887572E+00  4.200300295E+01  2.665600750E-07  0.00000E+00  9.000E+00
#rwgt            1           1   3.2002225855892963E-002           5      235212           0
</event>
<event>
      5   9999  3.79277E-02  4.25790E+01 -1.00000E+00  1.43177E-01
      21    -1     0     0   502   511  0.000000000E+00  0.000000000E+00  1.087921461E+03  1.087921461E+03  0.000000000E+00  0.00000E+00  9.000E+00
      21    -1     0     0   501   502  0.000000000E+00  0.000000000E+00 -4.899050968E+01  4.899050968E+01  0.000000000E+00  0.00000E+00  9.000E+00
      25     1     1     2     0     0 -1.552732827E+02 -4.724837355E+01  2.847017034E+02  3.507452937E+02  1.250000000E+02  0.00000E+00  9.000E+00
      25     1     1     2     0     0  1.257912938E+02  1.652728276E+01  5.751796359E+02  6.021239194E+02  1.250000000E+02  0.00000E+00  9.000E+00
      21     1     1     2   501   511  2.948198895E+01  3.072109079E+01  1.790496124E+02  1.840427580E+02  2.697398305E-06  0.00000E+00  9.000E+00
#rwgt            1           1   3.6819902397309881E-002           5      235351           0
</event>
<event>
      5   9999  3.79277E-02  7.58181E+00 -1.00000E+00  2.10767E-01
      21    -1     0     0   502   501  0.000000000E+00  0.000000000E+00  1.063377971E+03  1.063377971E+03  0.000000000E+00  0.00000E+00  9.000E+00
      21    -1     0     0   501   512  0.000000000E+00  0.000000000E+00 -6.593765219E+01  6.593765219E+01  0.000000000E+00  0.00000E+00  9.000E+00
      25     1     1     2     0     0 -8.945769390E+01  2.140725519E+02  5.033223434E+02  5.681444515E+02  1.250000000E+02  0.00000E+00  9.000E+00
      25     1     1     2     0     0  8.946917238E+01 -2.064907541E+02  4.865788746E+02  5.504790328E+02  1.250000000E+02  0.00000E+00  9.000E+00
      21     1     1     2   502   512 -1.147847692E-02 -7.581797799E+00  7.539100529E+00  1.069213853E+01  2.064765462E-07  0.00000E+00  9.000E+00
#rwgt            1           1   3.9695931870387578E-002           5      235482           0
</event>
<event>
      5   9999  3.79277E-02  7.01294E+01 -1.00000E+00  1.31180E-01
      21    -1     0     0   502   501  0.000000000E+00  0.000000000E+00  9.670548563E+02  9.670548563E+02  0.000000000E+00  0.00000E+00  9.000E+00
      21    -1     0     0   501   511  0.000000000E+00  0.000000000E+00 -6.299429809E+02  6.299429809E+02  0.000000000E+00  0.00000E+00  9.000E+00
      25     1     1     2     0     0  2.077553847E+01  1.184535866E+02  3.510768369E+02  3.915901181E+02  1.250000000E+02  0.00000E+00  9.000E+00
      25     1     1     2     0     0  4.913327197E+01 -1.240121697E+02  5.795840812E+02  6.077300419E+02  1.250000000E+02  0.00000E+00  9.000E+00
      21     1     1     2   502   511 -6.990881044E+01  5.558583092E+00 -5.935490427E+02  5.976776772E+02  7.629394531E-06  0.00000E+00  9.000E+00
#rwgt            1           1   3.7724965633179258E-002           5      235761           0
</event>
<event>
      5   9999  3.79277E-02  1.32638E+02 -1.00000E+00  1.18551E-01
      21    -1     0     0   512   501  0.000000000E+00  0.000000000E+00  5.711965577E+02  5.711965577E+02  0.000000000E+00  0.00000E+00  9.000E+00
      21    -1     0     0   501   502  0.000000000E+00  0.000000000E+00 -2.464545932E+02  2.464545932E+02  0.000000000E+00  0.00000E+00  9.000E+00
      25     1     1     2     0     0  2.601424247E+02  2.792677519E+01  3.128079033E+01  2.916461447E+02  1.250000000E+02  0.00000E+00  9.000E+00
      25     1     1     2     0     0 -1.500388188E+02 -1.018858727E+02  1.888969532E+01  2.210750976E+02  1.250000000E+02  0.00000E+00  9.000E+00
      21     1     1     2   512   502 -1.101036059E+02  7.395909752E+01  2.745714788E+02  3.049299085E+02  6.607249480E-06  0.00000E+00  9.000E+00
#rwgt            1           1   2.9715299329907029E-002           5      235905           0
</event>
<event>
      5   9999  3.79277E-02  6.77947E+01 -1.00000E+00  1.31929E-01
      21    -1     0     0   511   501  0.000000000E+00  0.000000000E+00  1.692964312E+02  1.692964312E+02  0.000000000E+00  0.00000E+00  9.000E+00
      21    -1     0     0   501   502  0.000000000E+00  0.000000000E+00 -4.430130235E+02  4.430130235E+02  0.000000000E+00  0.00000E+00  9.000E+00
      25     1     1     2     0     0  1.512386891E+01  6.389526950E+01  6.388420298E+01  1.549758958E+02  1.250000000E+02  0.00000E+00  9.000E+00
      25     1     1     2     0     0 -4.838940423E+01 -1.229675165E+02 -3.441079849E+02  3.892272470E+02  1.250000000E+02  0.00000E+00  9.000E+00
      21     1     1     2   511   502  3.326553532E+01  5.907224703E+01  6.507189604E+00  6.810631194E+01  7.300048300E-07  0.00000E+00  9.000E+00
#rwgt            1           1   1.2608174802067731E-002           5      235962           0
</event>
<event>
      5   9999  3.79277E-02  5.74089E+01 -1.00000E+00  1.35736E-01
      21    -1     0     0   512   501  0.000000000E+00  0.000000000E+00  5.540568749E+01  5.540568749E+01  0.000000000E+00  0.00000E+00  9.000E+00
      21    -1     0     0   501   502  0.000000000E+00  0.000000000E+00 -1.149198355E+03  1.149198355E+03  0.000000000E+00  0.00000E+00  9.000E+00
      25     1     1     2     0     0  1.395874856E+02 -5.216900770E+01 -5.514788435E+02  5.847736197E+02  1.250000000E+02  0.00000E+00  9.000E+00
      25     1     1     2     0     0 -8.956235774E+01  8.033393306E+01 -5.344265711E+02  5.618822979E+02  1.250000000E+02  0.00000E+00  9.000E+00
      21     1     1     2   512   502 -5.002512783E+01 -2.816492536E+01 -7.887253017E+00  5.794812503E+01  1.314008694E-06  0.00000E+00  9.000E+00
#rwgt            1           1   4.5697829244782620E-002           5      236100           0
</event>
<event>
      5   9999  3.79277E-02  5.13298E+01 -1.00000E+00  1.38428E-01
      21    -1     0     0   502   501  0.000000000E+00  0.000000000E+00  1.544676288E+02  1.544676288E+02  0.000000000E+00  0.00000E+00  9.000E+00
      21    -1     0     0   511   502  0.000000000E+00  0.000000000E+00 -6.320461167E+02  6.320461167E+02  0.000000000E+00  0.00000E+00  9.000E+00
      25     1     1     2     0     0  7.014239440E+01 -1.482659662E+00  2.542815991E+01  1.455807167E+02  1.250000000E+02  0.00000E+00  9.000E+00
      25     1     1     2     0     0 -1.163347596E+02  2.386597385E+01 -4.250711131E+01  1.775815742E+02  1.250000000E+02  0.00000E+00  9.000E+00
      21     1     1     2   511   501  4.619236520E+01 -2.238331419E+01 -4.604995364E+02  4.633514545E+02  7.629394531E-06  0.00000E+00  9.000E+00
#rwgt            1           1   4.8841969389430175E-002           5      236202           0
</event>
<event>
      5   9999  3.79277E-02  8.10039E+01 -1.00000E+00  1.28088E-01
      21    -1     0     0   502   512  0.000000000E+00  0.000000000E+00  1.762366389E+02  1.762366389E+02  0.000000000E+00  0.00000E+00  9.000E+00
      21    -1     0     0   501   502  0.000000000E+00  0.000000000E+00 -7.604394859E+02  7.604394859E+02  0.000000000E+00  0.00000E+00  9.000E+00
      25     1     1     2     0     0 -3.162031809E+02  6.848195118E+00 -4.249399098E+02  5.442704074E+02  1.250000000E+02  0.00000E+00  9.000E+00
      25     1     1     2     0     0  2.433869848E+02 -4.233680418E+01 -1.337455862E+02  3.074776597E+02  1.250000000E+02  0.00000E+00  9.000E+00
      21     1     1     2   501   512  7.281619609E+01  3.548860906E+01 -2.551735100E+01  8.492805772E+01  2.185142372E-06  0.00000E+00  9.000E+00
#rwgt            1           1   3.7294864852832690E-002           5      236456           0
</event>
<event>
      5   9999  3.79277E-02  2.53860E+01 -1.00000E+00  1.58254E-01
      21    -1     0     0   511   501  0.000000000E+00  0.000000000E+00  7.433609211E+02  7.433609211E+02  0.000000000E+00  0.00000E+00  9.000E+00
      21    -1     0     0   501   502  0.000000000E+00  0.000000000E+00 -8.130157457E+01  8.130157457E+01  0.000000000E+00  0.00000E+00  9.000E+00
      25     1     1     2     0     0 -8.691448853E+01  1.745031636E+02  2.889487755E+02  3.702997127E+02  1.250000000E+02  0.00000E+00  9.000E+00
      25     1     1     2     0     0  1.041201550E+02 -1.558373277E+02  2.885687736E+02  3.660918142E+02  1.250000000E+02  0.00000E+00  9.000E+00
      21     1     1     2   511   502 -1.720566648E+01 -1.866583587E+01  8.454179749E+01  8.827096868E+01  1.348699152E-06  0.00000E+00  9.000E+00
#rwgt            1           1   3.0619861306774389E-002           5      236633           0
</event>
<event>
      5   9999  3.79277E-02  4.59171E+01 -1.00000E+00  1.41220E-01
      21    -1     0     0   502   512  0.000000000E+00  0.000000000E+00  1.039811535E+02  1.039811535E+02  0.000000000E+00  0.00000E+00  9.000E+00
      21    -1     0     0   501   502  0.000000000E+00  0.000000000E+00 -8.190454933E+02  8.190454933E+02  0.000000000E+00  0.00000E+00  9.000E+00
      25     1     1     2     0     0  8.585055853E+01  1.595260680E+02 -6.030788111E+02  6.419874899E+02  1.250000000E+02  0.00000E+00  9.000E+00
      25     1     1     2     0     0 -4.751789103E+01 -1.342478695E+02 -1.320184897E+02  2.309422483E+02  1.250000000E+02  0.00000E+00  9.000E+00
      21     1     1     2   501   512 -3.833266750E+01 -2.527819857E+01  2.003296108E+01  5.009690859E+01  9.536743164E-07  0.00000E+00  9.000E+00
#rwgt            1           1   3.9994486984960761E-002           5      236757           0
</event>
<event>
      5   9999  3.79277E-02  3.67999E+01 -1.00000E+00  1.47122E-01
      21    -1     0     0   502   501  0.000000000E+00  0.000000000E+00  1.109232649E+03  1.109232649E+03  0.000000000E+00  0.00000E+00  9.000E+00
      21    -1     0     0   501   511  0.000000000E+00  0.000000000E+00 -3.815290299E+01  3.815290299E+01  0.000000000E+00  0.00000E+00  9.000E+00
      25     1     1     2     0     0  9.843718600E+01  5.648650642E+01  5.885301704E+02  6.122690311E+02  1.250000000E+02  0.00000E+00  9.000E+00
      25     1     1     2     0     0 -1.015916909E+02 -9.315093937E+01  4.459615615E+02  4.832232233E+02  1.250000000E+02  0.00000E+00  9.000E+00
      21     1     1     2   502   511  3.154504948E+00  3.666443295E+01  3.658801369E+01  5.189329717E+01  9.536743164E-07  0.00000E+00  9.000E+00
#rwgt            1           1   4.3674984731583801E-002           5      236900           0
</event>
<event>
      5   9999  3.79277E-02  1.67641E+01 -1.00000E+00  1.72952E-01
      21    -1     0     0   502   501  0.000000000E+00  0.000000000E+00  2.291513331E+02  2.291513331E+02  0.000000000E+00  0.00000E+00  9.000E+00
      21    -1     0     0   512   502  0.000000000E+00  0.000000000E+00 -1.715482765E+02  1.715482765E+02  0.000000000E+00  0.00000E+00  9.000E+00
      25     1     1     2     0     0 -6.431793560E+01 -9.634009843E+01 -5.686767733E+01  1.796584096E+02  1.250000000E+02  0.00000E+00  9.000E+00
      25     1     1     2     0     0  7.608137021E+01  8.439620919E+01  1.148532033E+02  2.042727425E+02  1.250000000E+02  0.00000E+00  9.000E+00
      21     1     1     2   512   501 -1.176343461E+01  1.194388925E+01 -3.824693316E-01  1.676845750E+01  4.179968283E-07  0.00000E+00  9.000E+00
#rwgt            1           1   2.8878430051784556E-002           5      237019           0
</event>
<event>
      5   9999  3.79277E-02  6.61884E+00 -1.00000E+00  2.19049E-01
      21    -1     0     0   502   501  0.000000000E+00  0.000000000E+00  4.467924753E+02  4.467924753E+02  0.000000000E+00  0.00000E+00  9.000E+00
      21    -1     0     0   511   502  0.000000000E+00  0.000000000E+00 -8.582108681E+02  8.582108681E+02  0.000000000E+00  0.00000E+00  9.000E+00
      25     1     1     2     0     0 -2.371444818E+02  1.032594644E+02 -5.158660547E+01  2.918667506E+02  1.250000000E+02  0.00000E+00  9.000E+00
      25     1     1     2     0     0  2.373037141E+02 -9.664253975E+01  2.644263781E+02  3.888433395E+02  1.250000000E+02  0.00000E+00  9.000E+00
      21     1     1     2   511   501 -1.592323444E-01 -6.616924665E+00 -6.242581654E+02  6.242932533E+02  0.000000000E+00  0.00000E+00  9.000E+00
#rwgt            1           1   7.0362491212737063E-002           5      237224           0
</event>
<event>
      5   9999  3.79277E-02  6.79999E+01 -1.00000E+00  1.31861E-01
       1    -1     0     0   502     0  0.000000000E+00  0.000000000E+00  1.313401307E+03  1.313401307E+03  0.000000000E+00  0.00000E+00  9.000E+00
      21    -1     0     0   501   502  0.000000000E+00  0.000000000E+00 -4.869923000E+02  4.869923000E+02  0.000000000E+00  0.00000E+00  9.000E+00
      25     1     1     2     0     0 -2.261733207E+02  1.156065179E+02 -3.224071428E+02  4.290578093E+02  1.250000000E+02  0.00000E+00  9.000E+00
      25     1     1     2     0     0  1.735121799E+02 -1.586273649E+02  5.061039029E+01  2.710268051E+02  1.250000000E+02  0.00000E+00  9.000E+00
       1     1     1     2   501     0  5.266114078E+01  4.302084697E+01  1.098205759E+03  1.100308992E+03  1.525878906E-05  0.00000E+00  9.000E+00
#rwgt            1           1   3.2310521380969966E-002           5      237444           0
</event>
<event>
      5   9999 -3.79277E-02  7.10617E+01 -1.00000E+00  1.30890E-01
      21    -1     0     0   502   501  0.000000000E+00  0.000000000E+00  9.949700526E+01  9.949700526E+01  0.000000000E+00  0.00000E+00  9.000E+00
      21    -1     0     0   501   511  0.000000000E+00  0.000000000E+00 -8.175985922E+02  8.175985922E+02  0.000000000E+00  0.00000E+00  9.000E+00
      25     1     1     2     0     0  5.887437481E+01 -1.910469327E+02 -1.609345353E+02  2.854646163E+02  1.250000000E+02  0.00000E+00  9.000E+00
      25     1     1     2     0     0  7.156531464E+00  1.647849683E+02 -2.974160018E+02  3.623349001E+02  1.250000000E+02  0.00000E+00  9.000E+00
      21     1     1     2   502   511 -6.603090628E+01  2.626196444E+01 -2.597510499E+02  2.692960811E+02  3.814697266E-06  0.00000E+00  9.000E+00
#rwgt            1           1  -2.3008654819009520E-002           5      237553           0
</event>
<event>
      5   9999  3.79277E-02  1.11528E+02 -1.00000E+00  1.21734E-01
      21    -1     0     0   502   501  0.000000000E+00  0.000000000E+00  1.122140314E+02  1.122140314E+02  0.000000000E+00  0.00000E+00  9.000E+00
      21    -1     0     0   501   512  0.000000000E+00  0.000000000E+00 -9.376201002E+02  9.376201002E+02  0.000000000E+00  0.00000E+00  9.000E+00
      25     1     1     2     0     0 -1.444727887E+02 -6.851628279E+01 -3.100450503E+02  3.705668643E+02  1.250000000E+02  0.00000E+00  9.000E+00
      25     1     1     2     0     0  1.948395543E+02  1.680233977E+02 -2.119524833E+02  3.560100690E+02  1.250000000E+02  0.00000E+00  9.000E+00
      21     1     1     2   502   512 -5.036676560E+01 -9.950711490E+01 -3.034085352E+02  3.232571983E+02  3.814697266E-06  0.00000E+00  9.000E+00
#rwgt            1           1   4.1783872864137067E-002           5      237770           0
</event>
<event>
      5   9999  3.79277E-02  6.74651E+01 -1.00000E+00  1.32037E-01
      21    -1     0     0   502   511  0.000000000E+00  0.000000000E+00  1.016897775E+02  1.016897775E+02  0.000000000E+00  0.00000E+00  9.000E+00
      21    -1     0     0   501   502  0.000000000E+00  0.000000000E+00 -7.943489801E+02  7.943489801E+02  0.000000000E+00  0.00000E+00  9.000E+00
      25     1     1     2     0     0  9.677871661E+01  1.702333585E+01 -4.432756581E+02  4.709291061E+02  1.250000000E+02  0.00000E+00  9.000E+00
      25     1     1     2     0     0 -2.945167525E+01 -1.270908410E+01 -3.091341359E+02  3.349893073E+02  1.250000000E+02  0.00000E+00  9.000E+00
      21     1     1     2   501   511 -6.732704136E+01 -4.314251748E+00  5.975059146E+01  9.012034424E+01  2.611744678E-06  0.00000E+00  9.000E+00
#rwgt            1           1   3.7603136027612817E-002           5      237874           0
</event>
<event>
      5   9999  3.79277E-02  2.51738E+01 -1.00000E+00  1.58526E-01
      21    -1     0     0   512   501  0.000000000E+00  0.000000000E+00  1.586100884E+02  1.586100884E+02  0.000000000E+00  0.00000E+00  9.000E+00
      21    -1     0     0   501   502  0.000000000E+00  0.000000000E+00 -5.934378862E+02  5.934378862E+02  0.000000000E+00  0.00000E+00  9.000E+00
      25     1     1     2     0     0 -1.334755482E+02  1.335710472E+02 -3.288339793E+02  3.992664932E+02  1.250000000E+02  0.00000E+00  9.000E+00
      25     1     1     2     0     0  1.585979347E+02 -1.351786961E+02 -1.615385725E+02  2.917983810E+02  1.250000000E+02  0.00000E+00  9.000E+00
      21     1     1     2   512   502 -2.512238651E+01  1.607648938E+00  5.554475398E+01  6.098310039E+01  9.536743164E-07  0.00000E+00  9.000E+00
#rwgt            1           1   3.8428327551979689E-002           5      237959           0
</event>
<event>
      5   9999  3.79277E-02  3.49176E+01 -1.00000E+00  1.48598E-01
      21    -1     0     0   511   501  0.000000000E+00  0.000000000E+00  5.869951617E+01  5.869951617E+01  0.000000000E+00  0.00000E+00  9.000E+00
      21    -1     0     0   501   502  0.000000000E+00  0.000000000E+00 -2.555084104E+03  2.555084104E+03  0.000000000E+00  0.00000E+00  9.000E+00
      25     1     1     2     0     0 -1.398185438E+02  1.124470666E+02 -1.878123508E+03  1.890811064E+03  1.250000000E+02  0.00000E+00  9.000E+00
      25     1     1     2     0     0  1.213810760E+02 -1.421000638E+02 -6.423434395E+02  6.805555730E+02  1.250000000E+02  0.00000E+00  9.000E+00
      21     1     1     2   511   502  1.843746774E+01  2.965299716E+01  2.408235939E+01  4.241698352E+01  1.877309769E-06  0.00000E+00  9.000E+00
#rwgt            1           1   6.1355651788296009E-002           5      238148           0
</event>
<event>
      5   9999  3.79277E-02  1.58378E+02 -1.00000E+00  1.15466E-01
      21    -1     0     0   512   501  0.000000000E+00  0.000000000E+00  1.136172708E+03  1.136172708E+03  0.000000000E+00  0.00000E+00  9.000E+00
      21    -1     0     0   501   502  0.000000000E+00  0.000000000E+00 -2.761117233E+02  2.761117233E+02  0.000000000E+00  0.00000E+00  9.000E+00
      25     1     1     2     0     0  1.119284951E+02 -1.219991457E+02 -2.101672548E+02  2.953084059E+02  1.250000000E+02  0.00000E+00  9.000E+00
      25     1     1     2     0     0 -3.796737449E+01 -1.804822586E+01  7.283681551E+02  7.402110708E+02  1.250000000E+02  0.00000E+00  9.000E+00
      21     1     1     2   512   502 -7.396112065E+01  1.400473715E+02  3.418600845E+02  3.767649546E+02  5.394796609E-06  0.00000E+00  9.000E+00
#rwgt            1           1   3.6037688541731852E-002           5      238368           0
</event>
<event>
      5   9999  3.79277E-02  1.34551E+01 -1.00000E+00  1.81949E-01
      21    -1     0     0   502   511  0.000000000E+00  0.000000000E+00  1.572424931E+02  1.572424931E+02  0.000000000E+00  0.00000E+00  9.000E+00
      21    -1     0     0   501   502  0.000000000E+00  0.000000000E+00 -4.105567111E+02  4.105567111E+02  0.000000000E+00  0.00000E+00  9.000E+00
      25     1     1     2     0     0 -1.343430964E+02  3.761731390E+01  5.576429447E+01  1.954425399E+02  1.250000000E+02  0.00000E+00  9.000E+00
      25     1     1     2     0     0  1.247925397E+02 -2.813957599E+01 -3.110018337E+02  3.587647617E+02  1.250000000E+02  0.00000E+00  9.000E+00
      21     1     1     2   501   511  9.550556787E+00 -9.477737907E+00  1.923321257E+00  1.359190257E+01  1.264405455E-07  0.00000E+00  9.000E+00
#rwgt            1           1   4.8165235097073919E-002           5      238501           0
</event>
<event>
      5   9999  3.79277E-02  5.14624E+01 -1.00000E+00  1.38365E-01
      21    -1     0     0   502   501  0.000000000E+00  0.000000000E+00  3.756457701E+02  3.756457701E+02  0.000000000E+00  0.00000E+00  9.000E+00
      -1    -1     0     0     0   502  0.000000000E+00  0.000000000E+00 -8.038205640E+02  8.038205640E+02  0.000000000E+00  0.00000E+00  9.000E+00
      25     1     1     2     0     0  2.665238881E+02  3.015592961E+02  1.011942775E+02  4.334031308E+02  1.250000000E+02  0.00000E+00  9.000E+00
      25     1     1     2     0     0 -2.672564766E+02 -2.501020974E+02 -2.467329816E+02  4.587801735E+02  1.250000000E+02  0.00000E+00  9.000E+00
      -1     1     1     2     0   501  7.325884460E-01 -5.145719876E+01 -2.826360898E+02  2.872830299E+02  3.814697266E-06  0.00000E+00  9.000E+00
#rwgt            2          10   2.4266537735640386E-005           5      238778           0
</event>
<event>
      5   9999  3.79277E-02  1.51770E+01 -1.00000E+00  1.76905E-01
      21    -1     0     0   502   501  0.000000000E+00  0.000000000E+00  1.241384753E+03  1.241384753E+03  0.000000000E+00  0.00000E+00  9.000E+00
      21    -1     0     0   501   511  0.000000000E+00  0.000000000E+00 -3.602856996E+01  3.602856996E+01  0.000000000E+00  0.00000E+00  9.000E+00
      25     1     1     2     0     0 -1.182369422E+02 -2.695200314E+01  3.058944018E+02  3.519982529E+02  1.250000000E+02  0.00000E+00  9.000E+00
      25     1     1     2     0     0  1.039981999E+02  2.169847617E+01  8.945433987E+02  9.094610171E+02  1.250000000E+02  0.00000E+00  9.000E+00
      21     1     1     2   502   511  1.423874233E+01  5.253526971E+00  4.918382928E+00  1.595405339E+01  2.731427965E-07  0.00000E+00  9.000E+00
#rwgt            1           1   4.6963158113237022E-002           5      238812           0
</event>
<event>
      5   9999 -3.79277E-02  5.84492E+01 -1.00000E+00  1.35314E-01
      21    -1     0     0   512   501  0.000000000E+00  0.000000000E+00  2.265271423E+02  2.265271423E+02  0.000000000E+00  0.00000E+00  9.000E+00
      21    -1     0     0   501   502  0.000000000E+00  0.000000000E+00 -2.428408419E+02  2.428408419E+02  0.000000000E+00  0.00000E+00  9.000E+00
      25     1     1     2     0     0 -7.119737353E+00  1.315773782E+02 -4.695089569E+01  1.875971314E+02  1.250000000E+02  0.00000E+00  9.000E+00
      25     1     1     2     0     0 -4.821032853E+01 -1.504160981E+02 -2.262079282E+01  2.026966665E+02  1.250000000E+02  0.00000E+00  9.000E+00
      21     1     1     2   512   502  5.533006588E+01  1.883871993E+01  5.325798892E+01  7.907418632E+01  1.507891493E-06  0.00000E+00  9.000E+00
#rwgt            1           1  -1.8193436808749110E-002           5      239059           0
</event>
<event>
      5   9999 -3.79277E-02  4.87792E+01 -1.00000E+00  1.39691E-01
      21    -1     0     0   502   501  0.000000000E+00  0.000000000E+00  1.704659689E+02  1.704659689E+02  0.000000000E+00  0.00000E+00  9.000E+00
      21    -1     0     0   501   511  0.000000000E+00  0.000000000E+00 -2.850406829E+02  2.850406829E+02  0.000000000E+00  0.00000E+00  9.000E+00
      25     1     1     2     0     0 -8.896862331E+01  8.865951333E+01 -6.159815791E+01  1.876039933E+02  1.250000000E+02  0.00000E+00  9.000E+00
      25     1     1     2     0     0  1.360255329E+02 -1.015068805E+02 -2.663131541E+01  2.124636895E+02  1.250000000E+02  0.00000E+00  9.000E+00
      21     1     1     2   502   511 -4.705690959E+01  1.284736721E+01 -2.634524061E+01  5.543896903E+01  5.840038640E-07  0.00000E+00  9.000E+00
#rwgt            1           1 -0.11185716907427012                5      239121           0
</event>
<event>
      5   9999  3.79277E-02  4.69074E+01 -1.00000E+00  1.40676E-01
      21    -1     0     0   502   501  0.000000000E+00  0.000000000E+00  6.420638005E+02  6.420638005E+02  0.000000000E+00  0.00000E+00  9.000E+00
      21    -1     0     0   512   502  0.000000000E+00  0.000000000E+00 -1.194081851E+02  1.194081851E+02  0.000000000E+00  0.00000E+00  9.000E+00
      25     1     1     2     0     0  1.665978710E+02  4.131447580E+01  3.926493777E+02  4.463857864E+02  1.250000000E+02  0.00000E+00  9.000E+00
      25     1     1     2     0     0 -1.840263464E+02 -8.486393482E+01  1.218686698E+02  2.674781417E+02  1.250000000E+02  0.00000E+00  9.000E+00
      21     1     1     2   512   501  1.742847535E+01  4.354945902E+01  8.137567918E+00  4.760805757E+01  9.973764736E-07  0.00000E+00  9.000E+00
#rwgt            1           1   2.9835150700255813E-002           5      239211           0
</event>
<event>
      5   9999  3.79277E-02  2.07632E+01 -1.00000E+00  1.65038E-01
      21    -1     0     0   502   501  0.000000000E+00  0.000000000E+00  1.054810075E+03  1.054810075E+03  0.000000000E+00  0.00000E+00  9.000E+00
      21    -1     0     0   511   502  0.000000000E+00  0.000000000E+00 -5.801536499E+02  5.801536499E+02  0.000000000E+00  0.00000E+00  9.000E+00
      25     1     1     2     0     0  1.005515018E+02  5.805287544E+01  6.941053843E+02  7.147643145E+02  1.250000000E+02  0.00000E+00  9.000E+00
      25     1     1     2     0     0 -9.025503677E+01 -7.608324985E+01  3.290755671E+02  3.712820510E+02  1.250000000E+02  0.00000E+00  9.000E+00
      21     1     1     2   511   501 -1.029646502E+01  1.803037442E+01 -5.485245262E+02  5.489173593E+02  0.000000000E+00  0.00000E+00  9.000E+00
#rwgt            1           1   2.9721664934802168E-002           5      239323           0
</event>
<event>
      5   9999  3.79277E-02  9.17264E+01 -1.00000E+00  1.25539E-01
      21    -1     0     0   502   501  0.000000000E+00  0.000000000E+00  2.287858528E+02  2.287858528E+02  0.000000000E+00  0.00000E+00  9.000E+00
      21    -1     0     0   501   512  0.000000000E+00  0.000000000E+00 -3.288408848E+02  3.288408848E+02  0.000000000E+00  0.00000E+00  9.000E+00
      25     1     1     2     0     0  3.661349988E+01  1.784396683E+02 -9.646485457E+01  2.410637504E+02  1.250000000E+02  0.00000E+00  9.000E+00
      25     1     1     2     0     0 -5.707216791E+01 -8.902390239E+01  8.889409541E+01  1.863052542E+02  1.250000000E+02  0.00000E+00  9.000E+00
      21     1     1     2   502   512  2.045866804E+01 -8.941576589E+01 -9.248427287E+01  1.302577330E+02  3.015782986E-06  0.00000E+00  9.000E+00
#rwgt            1           1   9.8156517216159284E-002           5      239461           0
</event>
<event>
      5   9999  3.79277E-02  2.67496E+01 -1.00000E+00  1.56581E-01
      21    -1     0     0   502   501  0.000000000E+00  0.000000000E+00  4.871653170E+02  4.871653170E+02  0.000000000E+00  0.00000E+00  9.000E+00
      21    -1     0     0   511   502  0.000000000E+00  0.000000000E+00 -8.231427508E+01  8.231427508E+01  0.000000000E+00  0.00000E+00  9.000E+00
      25     1     1     2     0     0 -4.160592502E+01 -2.281989764E-01  3.883381942E+02  4.100764053E+02  1.250000000E+02  0.00000E+00  9.000E+00
      25     1     1     2     0     0  2.903304907E+01  2.383884378E+01  5.996028099E+00  1.306604790E+02  1.250000000E+02  0.00000E+00  9.000E+00
      21     1     1     2   511   501  1.257287595E+01 -2.361064480E+01  1.051681954E+01  2.874270779E+01  3.576278687E-07  0.00000E+00  9.000E+00
#rwgt            1           1   3.6622093842326474E-002           5      239759           0
</event>
<event>
      5   9999  3.79277E-02  1.70459E+02 -1.00000E+00  1.14235E-01
      21    -1     0     0   512   501  0.000000000E+00  0.000000000E+00  6.899309440E+02  6.899309440E+02  0.000000000E+00  0.00000E+00  9.000E+00
      21    -1     0     0   501   502  0.000000000E+00  0.000000000E+00 -2.259045791E+02  2.259045791E+02  0.000000000E+00  0.00000E+00  9.000E+00
      25     1     1     2     0     0 -1.057634293E+02  8.810024673E+00 -4.158076468E+01  1.691670166E+02  1.250000000E+02  0.00000E+00  9.000E+00
      25     1     1     2     0     0  2.043733990E+02  1.302307311E+02  7.388203365E+01  2.825103263E+02  1.250000000E+02  0.00000E+00  9.000E+00
      21     1     1     2   512   502 -9.860996972E+01 -1.390407558E+02  4.317250959E+02  4.641581803E+02  7.629394531E-06  0.00000E+00  9.000E+00
#rwgt            2          11   1.6290193028429755E-003           5      239879           0
</event>
<event>
      5   9999  3.79277E-02  4.44436E+01 -1.00000E+00  1.42059E-01
      21    -1     0     0   511   501  0.000000000E+00  0.000000000E+00  2.501322827E+02  2.501322827E+02  0.000000000E+00  0.00000E+00  9.000E+00
      21    -1     0     0   501   502  0.000000000E+00  0.000000000E+00 -2.631074042E+02  2.631074042E+02  0.000000000E+00  0.00000E+00  9.000E+00
      25     1     1     2     0     0 -1.931846519E+01 -2.315275023E+01 -3.415869040E+01  1.330453647E+02  1.250000000E+02  0.00000E+00  9.000E+00
      25     1     1     2     0     0 -2.160103296E+01  4.049726320E+01 -1.516051065E+02  2.017814195E+02  1.250000000E+02  0.00000E+00  9.000E+00
      21     1     1     2   511   502  4.091949815E+01 -1.734451297E+01  1.727886755E+02  1.784129026E+02  0.000000000E+00  0.00000E+00  9.000E+00
#rwgt            1           1   3.1773647261296077E-002           5      239899           0
</event>
<event>
      5   9999  3.79277E-02  1.37800E+02 -1.00000E+00  1.17873E-01
      21    -1     0     0   502   512  0.000000000E+00  0.000000000E+00  2.051928594E+02  2.051928594E+02  0.000000000E+00  0.00000E+00  9.000E+00
      21    -1     0     0   501   502  0.000000000E+00  0.000000000E+00 -5.183493541E+02  5.183493541E+02  0.000000000E+00  0.00000E+00  9.000E+00
      25     1     1     2     0     0 -1.582302584E+02 -3.132952451E+01 -1.117348729E+02  2.326543264E+02  1.250000000E+02  0.00000E+00  9.000E+00
      25     1     1     2     0     0  2.202689827E+01  1.041429002E+01 -2.970221783E+02  3.231730436E+02  1.250000000E+02  0.00000E+00  9.000E+00
      21     1     1     2   501   512  1.362033602E+02  2.091523450E+01  9.560055640E+01  1.677148435E+02  3.303624740E-06  0.00000E+00  9.000E+00
#rwgt            1           1   2.5679195649928328E-002           5      239987           0
</event>
<event>
      5   9999  3.79277E-02  1.37061E+02 -1.00000E+00  1.17968E-01
      21    -1     0     0   511   501  0.000000000E+00  0.000000000E+00  3.212168399E+02  3.212168399E+02  0.000000000E+00  0.00000E+00  9.000E+00
      21    -1     0     0   501   502  0.000000000E+00  0.000000000E+00 -2.712552962E+02  2.712552962E+02  0.000000000E+00  0.00000E+00  9.000E+00
      25     1     1     2     0     0  9.392125653E+01 -6.902854498E+01 -2.134321802E+01  1.722401678E+02  1.250000000E+02  0.00000E+00  9.000E+00
      25     1     1     2     0     0 -2.309740330E+02  7.056223957E+01  1.593667065E+01  2.724096383E+02  1.250000000E+02  0.00000E+00  9.000E+00
      21     1     1     2   511   502  1.370527765E+02 -1.533694592E+00  5.536809100E+01  1.478223300E+02  3.015782986E-06  0.00000E+00  9.000E+00
#rwgt            1           1   3.7691798195167998E-002           5      240023           0
</event>
<event>
      5   9999  3.79277E-02  1.71092E+02 -1.00000E+00  1.14173E-01
      21    -1     0     0   502   501  0.000000000E+00  0.000000000E+00  3.323369532E+02  3.323369532E+02  0.000000000E+00  0.00000E+00  9.000E+00
      21    -1     0     0   501   512  0.000000000E+00  0.000000000E+00 -2.812351211E+02  2.812351211E+02  0.000000000E+00  0.00000E+00  9.000E+00
      25     1     1     2     0     0 -4.579664224E+01  5.437947004E+01 -4.749408173E+00  1.438819519E+02  1.250000000E+02  0.00000E+00  9.000E+00
      25     1     1     2     0     0  2.103565947E+02 -7.555897544E+00  1.367732426E+02  2.804262977E+02  1.250000000E+02  0.00000E+00  9.000E+00
      21     1     1     2   502   512 -1.645599525E+02 -4.682357249E+01 -8.092200239E+01  1.892638248E+02  4.473129043E-06  0.00000E+00  9.000E+00
#rwgt            1           1   4.2771221647014947E-002           5      240114           0
</event>
<event>
      5   9999  3.79277E-02  2.64625E+01 -1.00000E+00  1.56923E-01
      21    -1     0     0   502   501  0.000000000E+00  0.000000000E+00  2.837768232E+02  2.837768232E+02  0.000000000E+00  0.00000E+00  9.000E+00
      21    -1     0     0   501   511  0.000000000E+00  0.000000000E+00 -2.686811465E+02  2.686811465E+02  0.000000000E+00  0.00000E+00  9.000E+00
      25     1     1     2     0     0 -1.202317756E+02  1.575194935E+02 -2.178229539E+01  2.353030793E+02  1.250000000E+02  0.00000E+00  9.000E+00
      25     1     1     2     0     0  1.451955336E+02 -1.487403819E+02  8.927245314E+01  2.584569888E+02  1.250000000E+02  0.00000E+00  9.000E+00
      21     1     1     2   502   511 -2.496375797E+01 -8.779111616E+00 -5.239448102E+01  5.869790161E+01  6.743495762E-07  0.00000E+00  9.000E+00
#rwgt            1           1   2.8560073676100691E-002           5      240215           0
</event>
<event>
      5   9999  3.79277E-02  1.12043E+01 -1.00000E+00  1.90216E-01
      21    -1     0     0   502   501  0.000000000E+00  0.000000000E+00  1.219667873E+02  1.219667873E+02  0.000000000E+00  0.00000E+00  9.000E+00
      21    -1     0     0   501   512  0.000000000E+00  0.000000000E+00 -2.985190147E+02  2.985190147E+02  0.000000000E+00  0.00000E+00  9.000E+00
      25     1     1     2     0     0 -9.039699886E+01 -8.007192068E+01 -1.525713027E+02  2.312706905E+02  1.250000000E+02  0.00000E+00  9.000E+00
      25     1     1     2     0     0  7.977891791E+01  8.364870284E+01 -8.979958041E+00  1.704917032E+02  1.250000000E+02  0.00000E+00  9.000E+00
      21     1     1     2   502   512  1.061808095E+01 -3.576782152E+00 -1.500096673E+01  1.872340825E+01  4.129530925E-07  0.00000E+00  9.000E+00
#rwgt            1           1   3.9988291948821877E-002           5      240361           0
</event>
<event>
      5   9999  3.79277E-02  4.12596E+01 -1.00000E+00  1.44010E-01
      21    -1     0     0   502   501  0.000000000E+00  0.000000000E+00  4.380244245E+01  4.380244245E+01  0.000000000E+00  0.00000E+00  9.000E+00
      21    -1     0     0   511   502  0.000000000E+00  0.000000000E+00 -1.006134295E+03  1.006134295E+03  0.000000000E+00  0.00000E+00  9.000E+00
      25     1     1     2     0     0 -3.057347592E+01 -1.180741084E+02 -5.027089397E+02  5.321818397E+02  1.250000000E+02  0.00000E+00  9.000E+00
      25     1     1     2     0     0  1.712716063E+01  7.906708574E+01 -1.733212621E+02  2.284955220E+02  1.250000000E+02  0.00000E+00  9.000E+00
      21     1     1     2   511   501  1.344631529E+01  3.900702266E+01 -2.863016506E+02  2.892593756E+02  0.000000000E+00  0.00000E+00  9.000E+00
#rwgt            1           1  0.11048669397086226                5      240682           0
</event>
<event>
      5   9999  3.79277E-02  5.92029E+01 -1.00000E+00  1.35015E-01
      21    -1     0     0   502   501  0.000000000E+00  0.000000000E+00  2.272767024E+02  2.272767024E+02  0.000000000E+00  0.00000E+00  9.000E+00
      21    -1     0     0   501   512  0.000000000E+00  0.000000000E+00 -3.245186152E+02  3.245186152E+02  0.000000000E+00  0.00000E+00  9.000E+00
      25     1     1     2     0     0 -1.068988942E+01  1.917927021E+02  6.799033913E+01  2.390531332E+02  1.250000000E+02  0.00000E+00  9.000E+00
      25     1     1     2     0     0  2.596184589E+01 -1.345935294E+02 -6.544969511E+01  1.967183219E+02  1.250000000E+02  0.00000E+00  9.000E+00
      21     1     1     2   502   512 -1.527195647E+01 -5.719917268E+01 -9.978255685E+01  1.160238625E+02  0.000000000E+00  0.00000E+00  9.000E+00
#rwgt            1           1   1.2321604224679329E-002           5      240829           0
</event>
<event>
      5   9999  3.79277E-02  8.51671E+01 -1.00000E+00  1.27047E-01
      21    -1     0     0   511   501  0.000000000E+00  0.000000000E+00  9.420556457E+02  9.420556457E+02  0.000000000E+00  0.00000E+00  9.000E+00
      21    -1     0     0   501   502  0.000000000E+00  0.000000000E+00 -5.123419702E+02  5.123419702E+02  0.000000000E+00  0.00000E+00  9.000E+00
      25     1     1     2     0     0 -5.569992855E+02 -2.823803682E+02 -5.048891861E+01  6.388747978E+02  1.250000000E+02  0.00000E+00  9.000E+00
      25     1     1     2     0     0  4.725821871E+02  2.936582109E+02  4.451212918E+02  7.234134591E+02  1.250000000E+02  0.00000E+00  9.000E+00
      21     1     1     2   511   502  8.441709835E+01 -1.127784277E+01  3.508130238E+01  9.210935896E+01  1.581489940E-06  0.00000E+00  9.000E+00
#rwgt            1           1   2.8990146600230943E-002           5      240958           0
</event>
<event>
      5   9999 -3.79277E-02  1.83534E+01 -1.00000E+00  1.69508E-01
      21    -1     0     0   502   501  0.000000000E+00  0.000000000E+00  1.147541182E+02  1.147541182E+02  0.000000000E+00  0.00000E+00  9.000E+00
       2    -1     0     0   501     0  0.000000000E+00  0.000000000E+00 -2.085755911E+03  2.085755911E+03  0.000000000E+00  0.00000E+00  9.000E+00
      25     1     1     2     0     0  1.157308183E+02 -6.679936156E+01 -8.004273832E+01  1.997188448E+02  1.250000000E+02  0.00000E+00  9.000E+00
      25     1     1     2     0     0 -9.762154871E+01  6.978262406E+01 -8.193040473E+01  1.916694358E+02  1.250000000E+02  0.00000E+00  9.000E+00
       2     1     1     2   502     0 -1.810926964E+01 -2.983262500E+00 -1.809028649E+03  1.809121748E+03  0.000000000E+00  0.00000E+00  9.000E+00
#rwgt            1           1 -0.35287222663897017                5      241097           0
</event>
<event>
      5   9999  3.79277E-02  1.04293E+01 -1.00000E+00  1.93670E-01
      21    -1     0     0   502   511  0.000000000E+00  0.000000000E+00  3.539131593E+02  3.539131593E+02  0.000000000E+00  0.00000E+00  9.000E+00
      21    -1     0     0   501   502  0.000000000E+00  0.000000000E+00 -1.692425452E+02  1.692425452E+02  0.000000000E+00  0.00000E+00  9.000E+00
      25     1     1     2     0     0  6.834221431E+01 -1.428420344E+02 -4.164277321E+01  2.059942368E+02  1.250000000E+02  0.00000E+00  9.000E+00
      25     1     1     2     0     0 -7.647697255E+01  1.493685881E+02  2.026111237E+02  2.912661496E+02  1.250000000E+02  0.00000E+00  9.000E+00
      21     1     1     2   501   511  8.134758237E+00 -6.526553717E+00  2.370226370E+01  2.589531810E+01  3.371747881E-07  0.00000E+00  9.000E+00
#rwgt            1           1   1.8778406973726559E-002           5      241316           0
</event>
<event>
      5   9999  3.79277E-02  1.26994E+01 -1.00000E+00  1.84478E-01
      21    -1     0     0   502   501  0.000000000E+00  0.000000000E+00  1.042330941E+02  1.042330941E+02  0.000000000E+00  0.00000E+00  9.000E+00
      21    -1     0     0   512   502  0.000000000E+00  0.000000000E+00 -4.242668178E+02  4.242668178E+02  0.000000000E+00  0.00000E+00  9.000E+00
      25     1     1     2     0     0 -1.260791874E+02  4.599184386E+01 -2.391479780E+02  3.013767851E+02  1.250000000E+02  0.00000E+00  9.000E+00
      25     1     1     2     0     0  1.362776751E+02 -5.355923595E+01 -5.820548689E+01  2.011294985E+02  1.250000000E+02  0.00000E+00  9.000E+00
      21     1     1     2   512   501 -1.019848764E+01  7.567392099E+00 -2.268025884E+01  2.599362834E+01  0.000000000E+00  0.00000E+00  9.000E+00
#rwgt            1           1   3.6710704568116669E-002           5      241615           0
</event>
<event>
      5   9999  3.79277E-02  3.47942E+01 -1.00000E+00  1.48698E-01
      21    -1     0     0   511   501  0.000000000E+00  0.000000000E+00  3.643984946E+01  3.643984946E+01  0.000000000E+00  0.00000E+00  9.000E+00
      21    -1     0     0   501   502  0.000000000E+00  0.000000000E+00 -9.338626829E+02  9.338626829E+02  0.000000000E+00  0.00000E+00  9.000E+00
      25     1     1     2     0     0 -2.863834325E+01 -4.862829346E+01 -6.459628508E+02  6.603619237E+02  1.250000000E+02  0.00000E+00  9.000E+00
      25     1     1     2     0     0 -5.576234062E-02  6.830785086E+01 -2.246955093E+02  2.660433000E+02  1.250000000E+02  0.00000E+00  9.000E+00
      21     1     1     2   511   502  2.869410560E+01 -1.967955739E+01 -2.676447339E+01  4.389730870E+01  3.371747881E-07  0.00000E+00  9.000E+00
#rwgt            1           1   5.1215254241013773E-002           5      241912           0
</event>
<event>
      5   9999  3.79277E-02  1.37766E+01 -1.00000E+00  1.80937E-01
      21    -1     0     0   502   512  0.000000000E+00  0.000000000E+00  7.502221643E+01  7.502221643E+01  0.000000000E+00  0.00000E+00  9.000E+00
      21    -1     0     0   501   502  0.000000000E+00  0.000000000E+00 -6.543741915E+02  6.543741915E+02  0.000000000E+00  0.00000E+00  9.000E+00
      25     1     1     2     0     0  1.484630126E+02 -1.095538659E+01 -1.837564554E+02  2.674934046E+02  1.250000000E+02  0.00000E+00  9.000E+00
      25     1     1     2     0     0 -1.353057064E+02  1.503933984E+01 -4.050299407E+02  4.452056478E+02  1.250000000E+02  0.00000E+00  9.000E+00
      21     1     1     2   501   512 -1.315730618E+01 -4.083953251E+00  9.434421102E+00  1.669735552E+01  5.591411304E-07  0.00000E+00  9.000E+00
#rwgt            1           1   3.6334929651264503E-002           5      242171           0
</event>
<event>
      5   9999  3.79277E-02  5.53420E+00 -1.00000E+00  2.31064E-01
      21    -1     0     0   502   501  0.000000000E+00  0.000000000E+00  8.384279649E+01  8.384279649E+01  0.000000000E+00  0.00000E+00  9.000E+00
      21    -1     0     0   511   502  0.000000000E+00  0.000000000E+00 -6.122414885E+02  6.122414885E+02  0.000000000E+00  0.00000E+00  9.000E+00
      25     1     1     2     0     0  1.734026983E+02 -3.318522760E+01 -2.075247642E+02  2.997687156E+02  1.250000000E+02  0.00000E+00  9.000E+00
      25     1     1     2     0     0 -1.697542432E+02  3.734649758E+01 -2.673617660E+02  3.425179964E+02  1.250000000E+02  0.00000E+00  9.000E+00
      21     1     1     2   511   501 -3.648455174E+00 -4.161269983E+00 -5.351216174E+01  5.379757287E+01  1.168007728E-06  0.00000E+00  9.000E+00
#rwgt            1           1   3.3193397966201785E-002           5      242342           0
</event>
<event>
      5   9999  3.79277E-02  2.08830E+01 -1.00000E+00  1.64836E-01
      21    -1     0     0   502   512  0.000000000E+00  0.000000000E+00  3.041931933E+02  3.041931933E+02  0.000000000E+00  0.00000E+00  9.000E+00
      21    -1     0     0   501   502  0.000000000E+00  0.000000000E+00 -3.451848592E+02  3.451848592E+02  0.000000000E+00  0.00000E+00  9.000E+00
      25     1     1     2     0     0  2.170432508E+02  1.744618829E+02 -2.841011472E+01  3.065564482E+02  1.250000000E+02  0.00000E+00  9.000E+00
      25     1     1     2     0     0 -2.122101541E+02 -1.947778867E+02 -3.026667806E+01  3.154562513E+02  1.250000000E+02  0.00000E+00  9.000E+00
      21     1     1     2   501   512 -4.833096690E+00  2.031600378E+01  1.768512693E+01  2.736535305E+01  4.129530925E-07  0.00000E+00  9.000E+00
#rwgt            1           1  0.14641839309660767                5      242837           0
</event>
<event>
      5   9999  3.79277E-02  1.37504E+02 -1.00000E+00  1.17911E-01
      21    -1     0     0   502   501  0.000000000E+00  0.000000000E+00  4.047751515E+02  4.047751515E+02  0.000000000E+00  0.00000E+00  9.000E+00
      21    -1     0     0   511   502  0.000000000E+00  0.000000000E+00 -1.601557677E+02  1.601557677E+02  0.000000000E+00  0.00000E+00  9.000E+00
      25     1     1     2     0     0 -2.027513403E+01  8.072417319E+01 -9.817652704E-01  1.501780179E+02  1.250000000E+02  0.00000E+00  9.000E+00
      25     1     1     2     0     0 -7.215227887E+01  2.108252312E+01  2.353274147E+02  2.768653396E+02  1.250000000E+02  0.00000E+00  9.000E+00
      21     1     1     2   511   501  9.242741290E+01 -1.018066963E+02  1.027373435E+01  1.378875618E+02  1.835203686E-06  0.00000E+00  9.000E+00
#rwgt            1           1   4.5530424232895265E-002           5      243055           0
</event>
<event>
      5   9999  3.79277E-02  5.35611E+01 -1.00000E+00  1.37392E-01
      -2    -1     0     0     0   501  0.000000000E+00  0.000000000E+00  1.145297846E+03  1.145297846E+03  0.000000000E+00  0.00000E+00  9.000E+00
      21    -1     0     0   501   502  0.000000000E+00  0.000000000E+00 -6.119890935E+01  6.119890935E+01  0.000000000E+00  0.00000E+00  9.000E+00
      25     1     1     2     0     0  7.640242136E+01 -1.315581383E+02  3.726801369E+02  4.214977559E+02  1.250000000E+02  0.00000E+00  9.000E+00
      25     1     1     2     0     0 -5.689413692E+01  1.814401469E+02  3.361685187E+02  4.059454922E+02  1.250000000E+02  0.00000E+00  9.000E+00
      -2     1     1     2     0   502 -1.950828443E+01 -4.988200856E+01  3.752502806E+02  3.790535069E+02  5.394796609E-06  0.00000E+00  9.000E+00
#rwgt            1           1   3.1145045022875000E-002           5      243125           0
</event>
<event>
      5   9999  3.79277E-02  3.86171E+01 -1.00000E+00  1.45794E-01
      21    -1     0     0   502   511  0.000000000E+00  0.000000000E+00  4.441668039E+02  4.441668039E+02  0.000000000E+00  0.00000E+00  9.000E+00
      21    -1     0     0   501   502  0.000000000E+00  0.000000000E+00 -1.451575212E+02  1.451575212E+02  0.000000000E+00  0.00000E+00  9.000E+00
      25     1     1     2     0     0 -1.118129761E+02 -5.635658978E+01  7.725885497E+01  1.930599324E+02  1.250000000E+02  0.00000E+00  9.000E+00
      25     1     1     2     0     0  1.434316175E+02  7.852734977E+01  3.901194777E+01  2.094901087E+02  1.250000000E+02  0.00000E+00  9.000E+00
      21     1     1     2   501   511 -3.161864145E+01 -2.217075999E+01  1.827384799E+02  1.867742839E+02  2.697398305E-06  0.00000E+00  9.000E+00
#rwgt            1           1   3.4471102978163005E-002           5      243319           0
</event>
<event>
      5   9999  3.79277E-02  4.68617E+01 -1.00000E+00  1.40701E-01
      21    -1     0     0   502   501  0.000000000E+00  0.000000000E+00  1.978538744E+02  1.978538744E+02  0.000000000E+00  0.00000E+00  9.000E+00
      21    -1     0     0   501   512  0.000000000E+00  0.000000000E+00 -3.037387766E+02  3.037387766E+02  0.000000000E+00  0.00000E+00  9.000E+00
      25     1     1     2     0     0  1.320413848E+02  1.435280823E+02  1.044677717E+01  2.318822392E+02  1.250000000E+02  0.00000E+00  9.000E+00
      25     1     1     2     0     0 -1.092397645E+02 -1.025878470E+02 -1.045540407E+02  2.213913728E+02  1.250000000E+02  0.00000E+00  9.000E+00
      21     1     1     2   502   512 -2.280162027E+01 -4.094023534E+01 -1.177763866E+01  4.831903899E+01  7.152557373E-07  0.00000E+00  9.000E+00
#rwgt            1           1   2.5927944280716007E-002           5      243470           0
</event>
<event>
      5   9999  3.79277E-02  4.97079E+01 -1.00000E+00  1.39221E-01
      21    -1     0     0   502   511  0.000000000E+00  0.000000000E+00  5.138525186E+02  5.138525186E+02  0.000000000E+00  0.00000E+00  9.000E+00
      21    -1     0     0   501   502  0.000000000E+00  0.000000000E+00 -1.810580055E+02  1.810580055E+02  0.000000000E+00  0.00000E+00  9.000E+00
      25     1     1     2     0     0 -5.675794488E+01 -4.393366874E+01  4.051963687E+02  4.300706091E+02  1.250000000E+02  0.00000E+00  9.000E+00
      25     1     1     2     0     0  7.711309477E+00  5.201481445E+01 -1.306212741E+02  1.882868090E+02  1.250000000E+02  0.00000E+00  9.000E+00
      21     1     1     2   501   511  4.904663541E+01 -8.081145713E+00  5.821941840E+01  7.655310601E+01  1.348699152E-06  0.00000E+00  9.000E+00
#rwgt            1           1   3.2945369687034015E-002           5      243591           0
</event>
<event>
      5   9999  3.79277E-02  1.99436E+01 -1.00000E+00  1.66470E-01
      21    -1     0     0   502   501  0.000000000E+00  0.000000000E+00  4.710099513E+01  4.710099513E+01  0.000000000E+00  0.00000E+00  9.000E+00
       1    -1     0     0   501     0  0.000000000E+00  0.000000000E+00 -2.094765044E+03  2.094765044E+03  0.000000000E+00  0.00000E+00  9.000E+00
      25     1     1     2     0     0  7.075903669E+01  7.341133754E+01 -5.575128559E+02  5.803806081E+02  1.250000000E+02  0.00000E+00  9.000E+00
      25     1     1     2     0     0 -5.095092490E+01 -7.573182409E+01 -1.326675749E+02  2.038553197E+02  1.250000000E+02  0.00000E+00  9.000E+00
       1     1     1     2   502     0 -1.980811179E+01  2.320486550E+00 -1.357483618E+03  1.357630111E+03  2.157918644E-05  0.00000E+00  9.000E+00
#rwgt            1           1   3.7770001183292622E-002           5      243710           0
</event>
<event>
      5   9999  3.79277E-02  6.25455E+01 -1.00000E+00  1.33746E-01
      21    -1     0     0   511   501  0.000000000E+00  0.000000000E+00  5.948663953E+01  5.948663953E+01  0.000000000E+00  0.00000E+00  9.000E+00
      21    -1     0     0   501   502  0.000000000E+00  0.000000000E+00 -6.350566731E+02  6.350566731E+02  0.000000000E+00  0.00000E+00  9.000E+00
      25     1     1     2     0     0 -1.883476250E+01  5.633052832E+01 -3.029218724E+02  3.330383423E+02  1.250000000E+02  0.00000E+00  9.000E+00
      25     1     1     2     0     0  5.414900492E+01 -1.079526481E+02 -2.147400665E+02  2.762683209E+02  1.250000000E+02  0.00000E+00  9.000E+00
      21     1     1     2   511   502 -3.531424242E+01  5.162211981E+01 -5.790809472E+01  8.523664942E+01  9.536743164E-07  0.00000E+00  9.000E+00
#rwgt            1           1   5.1240340029340040E-002           5      243834           0
</event>
<event>
      5   9999  3.79277E-02  1.53012E+01 -1.00000E+00  1.76574E-01
      21    -1     0     0   502   501  0.000000000E+00  0.000000000E+00  3.003442716E+02  3.003442716E+02  0.000000000E+00  0.00000E+00  9.000E+00
      21    -1     0     0   501   512  0.000000000E+00  0.000000000E+00 -7.243704077E+02  7.243704077E+02  0.000000000E+00  0.00000E+00  9.000E+00
      25     1     1     2     0     0  1.529579693E+02  3.710927923E+01 -3.649206976E+00  2.010262562E+02  1.250000000E+02  0.00000E+00  9.000E+00
      25     1     1     2     0     0 -1.501631092E+02 -2.206549947E+01  1.536002809E+02  2.495072983E+02  1.250000000E+02  0.00000E+00  9.000E+00
      21     1     1     2   502   512 -2.794860113E+00 -1.504377977E+01 -5.739772100E+02  5.741811248E+02  0.000000000E+00  0.00000E+00  9.000E+00
#rwgt            1           1   3.9811734124432827E-002           5      243941           0
</event>
<event>
      5   9999  3.79277E-02  8.74775E+01 -1.00000E+00  1.26499E-01
      21    -1     0     0   502   501  0.000000000E+00  0.000000000E+00  1.355714143E+02  1.355714143E+02  0.000000000E+00  0.00000E+00  9.000E+00
      21    -1     0     0   511   502  0.000000000E+00  0.000000000E+00 -4.003682486E+02  4.003682486E+02  0.000000000E+00  0.00000E+00  9.000E+00
      25     1     1     2     0     0 -8.629146344E+01 -1.669139355E+00 -5.627499775E+01  1.619903641E+02  1.250000000E+02  0.00000E+00  9.000E+00
      25     1     1     2     0     0  1.672299289E+02  3.485451712E+01 -9.872222430E+01  2.335631907E+02  1.250000000E+02  0.00000E+00  9.000E+00
      21     1     1     2   511   501 -8.093846548E+01 -3.318537776E+01 -1.097996123E+02  1.403861081E+02  1.907348633E-06  0.00000E+00  9.000E+00
#rwgt            1           1   3.7188286471902726E-002           5      244125           0
</event>
<event>
      5   9999  3.79277E-02  4.43371E+01 -1.00000E+00  1.42121E-01
      21    -1     0     0   502   512  0.000000000E+00  0.000000000E+00  2.192071351E+02  2.192071351E+02  0.000000000E+00  0.00000E+00  9.000E+00
      21    -1     0     0   501   502  0.000000000E+00  0.000000000E+00 -5.863535507E+02  5.863535507E+02  0.000000000E+00  0.00000E+00  9.000E+00
      25     1     1     2     0     0 -4.923831526E+01 -3.185112875E+02 -1.754193383E+02  3.876477734E+02  1.250000000E+02  0.00000E+00  9.000E+00
      25     1     1     2     0     0  3.731875658E+01  2.758064667E+02 -2.095447578E+02  3.701295749E+02  1.250000000E+02  0.00000E+00  9.000E+00
      21     1     1     2   501   512  1.191955868E+01  4.270482084E+01  1.781768055E+01  4.778333750E+01  8.920806376E-07  0.00000E+00  9.000E+00
#rwgt            1           1   3.5330078477645153E-002           5      244428           0
</event>
<event>
      5   9999  3.79277E-02  4.91482E+01 -1.00000E+00  1.39503E-01
      21    -1     0     0   502   501  0.000000000E+00  0.000000000E+00  7.018622633E+02  7.018622633E+02  0.000000000E+00  0.00000E+00  9.000E+00
      21    -1     0     0   501   511  0.000000000E+00  0.000000000E+00 -1.538452461E+02  1.538452461E+02  0.000000000E+00  0.00000E+00  9.000E+00
      25     1     1     2     0     0 -9.943590800E+01  1.927318511E+01  2.374632970E+02  2.868323080E+02  1.250000000E+02  0.00000E+00  9.000E+00
      25     1     1     2     0     0  1.101407917E+02 -6.724141353E+01  4.156711834E+02  4.528354386E+02  1.250000000E+02  0.00000E+00  9.000E+00
      21     1     1     2   502   511 -1.070488370E+01  4.796822842E+01 -1.051174632E+02  1.160397628E+02  3.015782986E-06  0.00000E+00  9.000E+00
#rwgt            1           1   3.8937726404188105E-002           5      244734           0
</event>
<event>
      5   9999  3.79277E-02  4.19362E+01 -1.00000E+00  1.43578E-01
      21    -1     0     0   512   501  0.000000000E+00  0.000000000E+00  1.145441026E+03  1.145441026E+03  0.000000000E+00  0.00000E+00  9.000E+00
      21    -1     0     0   501   502  0.000000000E+00  0.000000000E+00 -6.364238226E+01  6.364238226E+01  0.000000000E+00  0.00000E+00  9.000E+00
      25     1     1     2     0     0 -1.128482707E+02  4.925858633E+00  7.483536091E+02  7.670835160E+02  1.250000000E+02  0.00000E+00  9.000E+00
      25     1     1     2     0     0  1.537368621E+02 -1.424060526E+01  1.374496057E+02  2.415682341E+02  1.250000000E+02  0.00000E+00  9.000E+00
      21     1     1     2   512   502 -4.088859146E+01  9.314746628E+00  1.959954289E+02  2.004316581E+02  2.697398305E-06  0.00000E+00  9.000E+00
#rwgt            1           1   4.5434902659329840E-002           5      244845           0
</event>
<event>
      5   9999  3.79277E-02  6.11608E+01 -1.00000E+00  1.34260E-01
      21    -1     0     0   511   501  0.000000000E+00  0.000000000E+00  2.415829454E+02  2.415829454E+02  0.000000000E+00  0.00000E+00  9.000E+00
      21    -1     0     0   501   502  0.000000000E+00  0.000000000E+00 -7.575700887E+02  7.575700887E+02  0.000000000E+00  0.00000E+00  9.000E+00
      25     1     1     2     0     0  1.761445289E+02  2.164541185E+02 -4.283529723E+02  5.262989164E+02  1.250000000E+02  0.00000E+00  9.000E+00
      25     1     1     2     0     0 -1.151335545E+02 -2.207330314E+02 -2.013575502E+02  3.437276096E+02  1.250000000E+02  0.00000E+00  9.000E+00
      21     1     1     2   511   502 -6.101097445E+01  4.278912980E+00  1.137233793E+02  1.291265081E+02  1.907348633E-06  0.00000E+00  9.000E+00
#rwgt            1           1   3.7994312490214462E-002           5      244987           0
</event>
<event>
      5   9999  3.79277E-02  1.33878E+02 -1.00000E+00  1.18385E-01
      21    -1     0     0   502   512  0.000000000E+00  0.000000000E+00  6.302393918E+02  6.302393918E+02  0.000000000E+00  0.00000E+00  9.000E+00
      21    -1     0     0   501   502  0.000000000E+00  0.000000000E+00 -1.108005249E+02  1.108005249E+02  0.000000000E+00  0.00000E+00  9.000E+00
      25     1     1     2     0     0  1.757552738E+01  1.547216658E+02  2.182498959E+02  2.958136408E+02  1.250000000E+02  0.00000E+00  9.000E+00
      25     1     1     2     0     0 -1.149561434E+01 -2.098136995E+01  1.358856212E+01  1.279922500E+02  1.250000000E+02  0.00000E+00  9.000E+00
      21     1     1     2   501   512 -6.079913035E+00 -1.337402958E+02  2.876004088E+02  3.172340259E+02  5.394796609E-06  0.00000E+00  9.000E+00
#rwgt            1           1   4.9903261759553640E-002           5      245166           0
</event>
<event>
      5   9999  3.79277E-02  3.89605E+01 -1.00000E+00  1.45553E-01
      21    -1     0     0   502   511  0.000000000E+00  0.000000000E+00  9.191364883E+01  9.191364883E+01  0.000000000E+00  0.00000E+00  9.000E+00
      21    -1     0     0   501   502  0.000000000E+00  0.000000000E+00 -5.088632656E+02  5.088632656E+02  0.000000000E+00  0.00000E+00  9.000E+00
      25     1     1     2     0     0 -1.251071139E+02 -3.363681665E+01 -3.485097065E+02  3.922591502E+02  1.250000000E+02  0.00000E+00  9.000E+00
      25     1     1     2     0     0  8.674480762E+01  4.043773750E+01 -6.109398878E+01  1.688708019E+02  1.250000000E+02  0.00000E+00  9.000E+00
      21     1     1     2   501   511  3.836230625E+01 -6.800920842E+00 -7.345921528E+00  3.964696241E+01  3.153981341E-07  0.00000E+00  9.000E+00
#rwgt            1           1   4.7411762439579411E-002           5      245241           0
</event>
<event>
      5   9999  3.79277E-02  3.08200E+01 -1.00000E+00  1.52231E-01
      21    -1     0     0   512   501  0.000000000E+00  0.000000000E+00  2.237831527E+02  2.237831527E+02  0.000000000E+00  0.00000E+00  9.000E+00
      21    -1     0     0   501   502  0.000000000E+00  0.000000000E+00 -6.710887090E+02  6.710887090E+02  0.000000000E+00  0.00000E+00  9.000E+00
      25     1     1     2     0     0  1.588687731E+02  2.463212222E+02 -1.652270440E+01  3.190790362E+02  1.250000000E+02  0.00000E+00  9.000E+00
      25     1     1     2     0     0 -1.503176335E+02 -2.759311501E+02 -4.270774878E+02  5.447509257E+02  1.250000000E+02  0.00000E+00  9.000E+00
      21     1     1     2   512   502 -8.551139662E+00  2.960992793E+01 -3.705364066E+00  3.104189982E+01  2.528810911E-07  0.00000E+00  9.000E+00
#rwgt            1           1   3.7480476891528461E-002           5      245566           0
</event>
<event>
      5   9999  3.79277E-02  7.50962E+01 -1.00000E+00  1.29693E-01
      21    -1     0     0   502   501  0.000000000E+00  0.000000000E+00  2.801227575E+01  2.801227575E+01  0.000000000E+00  0.00000E+00  9.000E+00
      21    -1     0     0   501   511  0.000000000E+00  0.000000000E+00 -1.278140505E+03  1.278140505E+03  0.000000000E+00  0.00000E+00  9.000E+00
      25     1     1     2     0     0  1.511664497E+01 -6.570641918E+01 -3.240843654E+02  3.538382715E+02  1.250000000E+02  0.00000E+00  9.000E+00
      25     1     1     2     0     0 -7.127973261E+01  1.585522976E+01 -5.421849603E+02  5.611788661E+02  1.250000000E+02  0.00000E+00  9.000E+00
      21     1     1     2   502   511  5.616308765E+01  4.985118942E+01 -3.838589033E+02  3.911356429E+02  7.629394531E-06  0.00000E+00  9.000E+00
#rwgt            1           1   5.2188562540240964E-002           5      245753           0
</event>
<event>
      5   9999  3.79277E-02  2.47453E+01 -1.00000E+00  1.59085E-01
      21    -1     0     0   502   501  0.000000000E+00  0.000000000E+00  3.155292405E+02  3.155292405E+02  0.000000000E+00  0.00000E+00  9.000E+00
      21    -1     0     0   501   512  0.000000000E+00  0.000000000E+00 -1.414865218E+02  1.414865218E+02  0.000000000E+00  0.00000E+00  9.000E+00
      25     1     1     2     0     0  4.705525635E+01 -7.102931084E+01  2.277834007E+02  2.734403734E+02  1.250000000E+02  0.00000E+00  9.000E+00
      25     1     1     2     0     0 -5.769726105E+01  4.868928218E+01 -2.958822623E+01  1.489969237E+02  1.250000000E+02  0.00000E+00  9.000E+00
      21     1     1     2   502   512  1.064200470E+01  2.234002866E+01 -2.415245569E+01  3.457846527E+01  4.768371582E-07  0.00000E+00  9.000E+00
#rwgt            1           1   4.9603258079866715E-002           5      245860           0
</event>
<event>
      5   9999  3.79277E-02  1.33147E+01 -1.00000E+00  1.82403E-01
       2    -1     0     0   502     0  0.000000000E+00  0.000000000E+00  6.871409312E+02  6.871409312E+02  0.000000000E+00  0.00000E+00  9.000E+00
      21    -1     0     0   501   502  0.000000000E+00  0.000000000E+00 -1.119508748E+03  1.119508748E+03  0.000000000E+00  0.00000E+00  9.000E+00
      25     1     1     2     0     0 -8.331276733E+01 -1.556521619E+02 -4.994445229E+02  5.442779107E+02  1.250000000E+02  0.00000E+00  9.000E+00
      25     1     1     2     0     0  9.588971734E+01  1.600227711E+02 -5.764822328E+02  6.186751085E+02  1.250000000E+02  0.00000E+00  9.000E+00
       2     1     1     2   501     0 -1.257695001E+01 -4.370609189E+00  6.435589390E+02  6.436966598E+02  7.629394531E-06  0.00000E+00  9.000E+00
#rwgt            1           1   3.2723351601604202E-002           5      246072           0
</event>
<event>
      5   9999 -3.79277E-02  5.14839E+01 -1.00000E+00  1.38355E-01
      21    -1     0     0   502   501  0.000000000E+00  0.000000000E+00  2.935629347E+03  2.935629347E+03  0.000000000E+00  0.00000E+00  9.000E+00
      21    -1     0     0   511   502  0.000000000E+00  0.000000000E+00 -4.033554678E+01  4.033554678E+01  0.000000000E+00  0.00000E+00  9.000E+00
      25     1     1     2     0     0 -1.234651125E+02 -1.488842830E+02  2.098394700E+03  2.110993955E+03  1.250000000E+02  0.00000E+00  9.000E+00
      25     1     1     2     0     0  7.744201866E+01  1.719595624E+02  7.778298964E+02  8.100689508E+02  1.250000000E+02  0.00000E+00  9.000E+00
      21     1     1     2   511   501  4.602309388E+01 -2.307527939E+01  1.906920397E+01  5.490198748E+01  9.233911863E-07  0.00000E+00  9.000E+00
#rwgt            1           1  -5.3081767114991324E-002           5      246358           0
</event>
<event>
      5   9999  3.79277E-02  6.61341E+00 -1.00000E+00  2.19101E-01
      21    -1     0     0   502   512  0.000000000E+00  0.000000000E+00  1.477208717E+03  1.477208717E+03  0.000000000E+00  0.00000E+00  9.000E+00
      21    -1     0     0   501   502  0.000000000E+00  0.000000000E+00 -3.401504390E+01  3.401504390E+01  0.000000000E+00  0.00000E+00  9.000E+00
      25     1     1     2     0     0  1.288924822E+02 -6.615741621E+01  7.153905284E+02  7.405394546E+02  1.250000000E+02  0.00000E+00  9.000E+00
      25     1     1     2     0     0 -1.277182923E+02  7.266575611E+01  4.132571572E+02  4.560688021E+02  1.250000000E+02  0.00000E+00  9.000E+00
      21     1     1     2   501   512 -1.174189939E+00 -6.508339901E+00  3.145459874E+02  3.146155040E+02  5.394796609E-06  0.00000E+00  9.000E+00
#rwgt            1           1   7.4239429910540805E-002           5      246485           0
</event>
<event>
      5   9999  3.79277E-02  1.34789E+02 -1.00000E+00  1.18264E-01
      21    -1     0     0   502   501  0.000000000E+00  0.000000000E+00  3.631760105E+02  3.631760105E+02  0.000000000E+00  0.00000E+00  9.000E+00
       2    -1     0     0   501     0  0.000000000E+00  0.000000000E+00 -6.584793462E+02  6.584793462E+02  0.000000000E+00  0.00000E+00  9.000E+00
      25     1     1     2     0     0 -1.641297147E+02 -7.123369628E+01  1.688062477E+02  2.759227283E+02  1.250000000E+02  0.00000E+00  9.000E+00
      25     1     1     2     0     0  2.936287187E+01  7.370385268E+01  9.147456695E+01  1.740316998E+02  1.250000000E+02  0.00000E+00  9.000E+00
       2     1     1     2   502     0  1.347668429E+02 -2.470156400E+00 -5.555841504E+02  5.717009286E+02  0.000000000E+00  0.00000E+00  9.000E+00
#rwgt            1           1   4.2036666588244599E-002           5      247000           0
</event>
<event>
      5   9999  3.79277E-02  4.07832E+01 -1.00000E+00  1.44320E-01
       1    -1     0     0   502     0  0.000000000E+00  0.000000000E+00  2.800099061E+02  2.800099061E+02  0.000000000E+00  0.00000E+00  9.000E+00
      21    -1     0     0   501   502  0.000000000E+00  0.000000000E+00 -5.485048392E+02  5.485048392E+02  0.000000000E+00  0.00000E+00  9.000E+00
      25     1     1     2     0     0  8.895294933E+01 -2.191178969E+02 -3.779571342E+02  4.630355011E+02  1.250000000E+02  0.00000E+00  9.000E+00
      25     1     1     2     0     0 -1.129442788E+02  1.861378678E+02  2.566964603E+00  2.510683278E+02  1.250000000E+02  0.00000E+00  9.000E+00
       1     1     1     2   501     0  2.399132946E+01  3.298002913E+01  1.068952365E+02  1.144109164E+02  1.348699152E-06  0.00000E+00  9.000E+00
#rwgt            1           1   3.5529440711304650E-002           5      247116           0
</event>
<event>
      5   9999  3.79277E-02  2.58298E+01 -1.00000E+00  1.57696E-01
      21    -1     0     0   511   501  0.000000000E+00  0.000000000E+00  1.006354153E+02  1.006354153E+02  0.000000000E+00  0.00000E+00  9.000E+00
      21    -1     0     0   501   502  0.000000000E+00  0.000000000E+00 -9.969658378E+02  9.969658378E+02  0.000000000E+00  0.00000E+00  9.000E+00
      25     1     1     2     0     0  1.098521725E+01 -1.587976410E+02 -3.498962122E+02  4.042149491E+02  1.250000000E+02  0.00000E+00  9.000E+00
      25     1     1     2     0     0 -3.445532745E+01  1.480119538E+02 -6.013358517E+02  6.327120314E+02  1.250000000E+02  0.00000E+00  9.000E+00
      21     1     1     2   511   502  2.347011020E+01  1.078568725E+01  5.490164142E+01  6.067427258E+01  2.132480600E-06  0.00000E+00  9.000E+00
#rwgt            1           1   1.2980666115677650E-002           5      247444           0
</event>
<event>
      5   9999  3.79277E-02  3.18828E+01 -1.00000E+00  1.51226E-01
      21    -1     0     0   502   501  0.000000000E+00  0.000000000E+00  1.101497841E+02  1.101497841E+02  0.000000000E+00  0.00000E+00  9.000E+00
      21    -1     0     0   501   512  0.000000000E+00  0.000000000E+00 -7.168246337E+02  7.168246337E+02  0.000000000E+00  0.00000E+00  9.000E+00
      25     1     1     2     0     0  2.209294154E+01  2.092412524E+02 -2.908399428E+02  3.801090266E+02  1.250000000E+02  0.00000E+00  9.000E+00
      25     1     1     2     0     0 -5.283232553E+01 -2.007792632E+02 -1.661609338E+02  2.938333254E+02  1.250000000E+02  0.00000E+00  9.000E+00
      21     1     1     2   502   512  3.073938399E+01 -8.461989128E+00 -1.496739730E+02  1.530320659E+02  1.907348633E-06  0.00000E+00  9.000E+00
#rwgt            1           1   2.4952168355901014E-002           5      247546           0
</event>
<event>
      5   9999  3.79277E-02  4.57028E+01 -1.00000E+00  1.41339E-01
       5    -1     0     0   502     0  0.000000000E+00  0.000000000E+00  1.755604766E+03  1.755604766E+03  0.000000000E+00  0.00000E+00  9.000E+00
      21    -1     0     0   501   502  0.000000000E+00  0.000000000E+00 -1.284189663E+02  1.284189663E+02  0.000000000E+00  0.00000E+00  9.000E+00
      25     1     1     2     0     0 -1.028667457E+02  1.978935831E+02  5.979923779E+02  6.503563036E+02  1.250000000E+02  0.00000E+00  9.000E+00
      25     1     1     2     0     0  7.442573744E+01 -2.336686150E+02  8.459067733E+01  2.879597102E+02  1.250000000E+02  0.00000E+00  9.000E+00
       5     1     1     2   501     0  2.844100830E+01  3.577503189E+01  9.446027442E+02  9.457077182E+02  0.000000000E+00  0.00000E+00  9.000E+00
#rwgt            1           1   3.2835103697268414E-002           5      247837           0
</event>
<event>
      5   9999  3.79277E-02  9.34007E+01 -1.00000E+00  1.25176E-01
      21    -1     0     0   502   511  0.000000000E+00  0.000000000E+00  7.738622627E+01  7.738622627E+01  0.000000000E+00  0.00000E+00  9.000E+00
      21    -1     0     0   501   502  0.000000000E+00  0.000000000E+00 -1.199324560E+03  1.199324560E+03  0.000000000E+00  0.00000E+00  9.000E+00
      25     1     1     2     0     0 -1.640503054E+02  1.077014968E+02 -5.999948301E+02  6.435300391E+02  1.250000000E+02  0.00000E+00  9.000E+00
      25     1     1     2     0     0  7.854191223E+01 -7.012478649E+01 -5.140973823E+02  5.394510507E+02  1.250000000E+02  0.00000E+00  9.000E+00
      21     1     1     2   501   511  8.550839314E+01 -3.757671028E+01 -7.846121818E+00  9.372969690E+01  2.445970121E-06  0.00000E+00  9.000E+00
#rwgt            1           1   3.8206540246455922E-002           5      247940           0
</event>
<event>
      5   9999  3.79277E-02  2.74786E+01 -1.00000E+00  1.55736E-01
      21    -1     0     0   502   501  0.000000000E+00  0.000000000E+00  8.188689841E+01  8.188689841E+01  0.000000000E+00  0.00000E+00  9.000E+00
      21    -1     0     0   512   502  0.000000000E+00  0.000000000E+00 -8.432874337E+02  8.432874337E+02  0.000000000E+00  0.00000E+00  9.000E+00
      25     1     1     2     0     0 -1.118610791E+02 -9.721710384E+01 -3.962407687E+02  4.411301543E+02  1.250000000E+02  0.00000E+00  9.000E+00
      25     1     1     2     0     0  1.180853341E+02  1.239814833E+02 -1.329893874E+02  2.502533346E+02  1.250000000E+02  0.00000E+00  9.000E+00
      21     1     1     2   512   501 -6.224254966E+00 -2.676437946E+01 -2.321703793E+02  2.337908432E+02  3.814697266E-06  0.00000E+00  9.000E+00
#rwgt            1           1   4.3875935273282374E-002           5      248010           0
</event>
<event>
      5   9999  3.79277E-02  5.54818E+01 -1.00000E+00  1.36546E-01
      21    -1     0     0   511   501  0.000000000E+00  0.000000000E+00  2.430514476E+02  2.430514476E+02  0.000000000E+00  0.00000E+00  9.000E+00
      21    -1     0     0   501   502  0.000000000E+00  0.000000000E+00 -2.302540063E+02  2.302540063E+02  0.000000000E+00  0.00000E+00  9.000E+00
      25     1     1     2     0     0 -8.188770659E+01 -7.727495386E+01 -8.171913419E+01  1.870294947E+02  1.250000000E+02  0.00000E+00  9.000E+00
      25     1     1     2     0     0  1.353236810E+02  9.220232886E+01  4.275257608E+01  2.103961759E+02  1.250000000E+02  0.00000E+00  9.000E+00
      21     1     1     2   511   502 -5.343597437E+01 -1.492737500E+01  5.176399942E+01  7.587978332E+01  6.743495762E-07  0.00000E+00  9.000E+00
#rwgt            1           1   4.4720788261150911E-002           5      248295           0
</event>
<event>
      5   9999  3.79277E-02  1.73523E+01 -1.00000E+00  1.71624E-01
      21    -1     0     0   512   501  0.000000000E+00  0.000000000E+00  4.991425131E+02  4.991425131E+02  0.000000000E+00  0.00000E+00  9.000E+00
      21    -1     0     0   501   502  0.000000000E+00  0.000000000E+00 -6.266228566E+01  6.266228566E+01  0.000000000E+00  0.00000E+00  9.000E+00
      25     1     1     2     0     0  8.728025464E+01 -5.448720476E+01  2.123330521E+02  2.670150246E+02  1.250000000E+02  0.00000E+00  9.000E+00
      25     1     1     2     0     0 -1.046199334E+02  5.382555129E+01  1.873201708E+02  2.540794498E+02  1.250000000E+02  0.00000E+00  9.000E+00
      21     1     1     2   512   502  1.733967878E+01  6.616534725E-01  3.682700450E+01  4.071032432E+01  6.743495762E-07  0.00000E+00  9.000E+00
#rwgt            1           1   3.8347772521449511E-002           5      248413           0
</event>
<event>
      5   9999  3.79277E-02  2.26346E+01 -1.00000E+00  1.62054E-01
      21    -1     0     0   502   501  0.000000000E+00  0.000000000E+00  2.244744975E+02  2.244744975E+02  0.000000000E+00  0.00000E+00  9.000E+00
      21    -1     0     0   511   502  0.000000000E+00  0.000000000E+00 -3.276686734E+02  3.276686734E+02  0.000000000E+00  0.00000E+00  9.000E+00
      25     1     1     2     0     0  7.313378134E+01 -1.415566104E+02 -8.278573223E+01  2.187814009E+02  1.250000000E+02  0.00000E+00  9.000E+00
      25     1     1     2     0     0 -9.575669228E+01  1.408284696E+02  8.339730650E+01  2.271169582E+02  1.250000000E+02  0.00000E+00  9.000E+00
      21     1     1     2   511   501  2.262291093E+01  7.281408170E-01 -1.038057501E+02  1.062448118E+02  0.000000000E+00  0.00000E+00  9.000E+00
#rwgt            1           1  0.16394513565494295                5      248562           0
</event>
<event>
      5   9999  3.79277E-02  3.74925E+01 -1.00000E+00  1.46606E-01
      21    -1     0     0   512   501  0.000000000E+00  0.000000000E+00  4.718163468E+02  4.718163468E+02  0.000000000E+00  0.00000E+00  9.000E+00
      21    -1     0     0   501   502  0.000000000E+00  0.000000000E+00 -2.207136502E+02  2.207136502E+02  0.000000000E+00  0.00000E+00  9.000E+00
      25     1     1     2     0     0  5.303673186E+01 -3.709525333E+01  3.935109663E+02  4.179292205E+02  1.250000000E+02  0.00000E+00  9.000E+00
      25     1     1     2     0     0 -5.807603567E+01 -5.702202807E-02 -1.764889611E+02  2.239334333E+02  1.250000000E+02  0.00000E+00  9.000E+00
      21     1     1     2   512   502  5.039303809E+00  3.715227536E+01  3.408069128E+01  5.066734319E+01  4.768371582E-07  0.00000E+00  9.000E+00
#rwgt            1           1   4.6916546136676243E-002           5      248815           0
</event>
<event>
      5   9999 -3.79277E-02  7.60990E+01 -1.00000E+00  1.29409E-01
      21    -1     0     0   502   501  0.000000000E+00  0.000000000E+00  7.379187758E+01  7.379187758E+01  0.000000000E+00  0.00000E+00  9.000E+00
       2    -1     0     0   501     0  0.000000000E+00  0.000000000E+00 -1.394128170E+03  1.394128170E+03  0.000000000E+00  0.00000E+00  9.000E+00
      25     1     1     2     0     0 -1.898014477E+02 -1.183211785E+02 -5.066981011E+02  5.677961399E+02  1.250000000E+02  0.00000E+00  9.000E+00
      25     1     1     2     0     0  1.264058283E+02  7.622541645E+01 -1.875335329E+02  2.694115319E+02  1.250000000E+02  0.00000E+00  9.000E+00
       2     1     1     2   502     0  6.339561940E+01  4.209576203E+01 -6.261046588E+02  6.307123762E+02  1.078959322E-05  0.00000E+00  9.000E+00
#rwgt            1           1 -0.16316196971322930                5      248968           0
</event>
<event>
      5   9999  3.79277E-02  5.10748E+01 -1.00000E+00  1.38551E-01
      21    -1     0     0   502   501  0.000000000E+00  0.000000000E+00  1.729432060E+03  1.729432060E+03  0.000000000E+00  0.00000E+00  9.000E+00
      21    -1     0     0   511   502  0.000000000E+00  0.000000000E+00 -2.453337002E+02  2.453337002E+02  0.000000000E+00  0.00000E+00  9.000E+00
      25     1     1     2     0     0  2.090379056E+02  1.744947621E+02  4.905963635E+02  5.748522069E+02  1.250000000E+02  0.00000E+00  9.000E+00
      25     1     1     2     0     0 -2.299906203E+02 -1.279156440E+02  1.175405701E+03  1.210975499E+03  1.250000000E+02  0.00000E+00  9.000E+00
      21     1     1     2   511   501  2.095271472E+01 -4.657911808E+01 -1.819037047E+02  1.889380541E+02  5.394796609E-06  0.00000E+00  9.000E+00
#rwgt            1           1   3.8395427255849705E-002           5      249162           0
</event>
<event>
      5   9999  3.79277E-02  2.49559E+01 -1.00000E+00  1.58808E-01
      21    -1     0     0   502   501  0.000000000E+00  0.000000000E+00  4.061945945E+02  4.061945945E+02  0.000000000E+00  0.00000E+00  9.000E+00
      21    -1     0     0   512   502  0.000000000E+00  0.000000000E+00 -3.639866964E+02  3.639866964E+02  0.000000000E+00  0.00000E+00  9.000E+00
      25     1     1     2     0     0 -6.510498798E+01  1.987092627E+02 -2.663748227E+02  3.609772523E+02  1.250000000E+02  0.00000E+00  9.000E+00
      25     1     1     2     0     0  4.605891888E+01 -1.825833809E+02  3.106418414E+02  3.841633358E+02  1.250000000E+02  0.00000E+00  9.000E+00
      21     1     1     2   512   501  1.904606910E+01 -1.612588177E+01 -2.059120563E+00  2.504070264E+01  3.908537939E-07  0.00000E+00  9.000E+00
#rwgt            2          11   1.0751548955976666E-002           5      249232           0
</event>
<event>
      5   9999  3.79277E-02  1.08122E+02 -1.00000E+00  1.22322E-01
       2    -1     0     0   502     0  0.000000000E+00  0.000000000E+00  1.183669996E+03  1.183669996E+03  0.000000000E+00  0.00000E+00  9.000E+00
      21    -1     0     0   501   502  0.000000000E+00  0.000000000E+00 -5.405663462E+02  5.405663462E+02  0.000000000E+00  0.00000E+00  9.000E+00
      25     1     1     2     0     0 -5.362253073E+01  4.980070283E+00 -1.316705636E+00  1.361135945E+02  1.250000000E+02  0.00000E+00  9.000E+00
      25     1     1     2     0     0  7.936961979E+01 -1.099916060E+02 -4.510613837E+02  4.873182347E+02  1.250000000E+02  0.00000E+00  9.000E+00
       2     1     1     2   501     0 -2.574708906E+01  1.050115357E+02  1.095481739E+03  1.100804513E+03  1.525878906E-05  0.00000E+00  9.000E+00
#rwgt            1           1   4.2264087923668182E-002           5      249327           0
</event>
<event>
      5   9999  3.79277E-02  2.66993E+01 -1.00000E+00  1.56641E-01
      21    -1     0     0   511   501  0.000000000E+00  0.000000000E+00  1.565579338E+02  1.565579338E+02  0.000000000E+00  0.00000E+00  9.000E+00
      21    -1     0     0   501   502  0.000000000E+00  0.000000000E+00 -2.594908517E+03  2.594908517E+03  0.000000000E+00  0.00000E+00  9.000E+00
      25     1     1     2     0     0 -2.106483946E+02 -9.520530151E+01 -1.481056997E+03  1.504191352E+03  1.250000000E+02  0.00000E+00  9.000E+00
      25     1     1     2     0     0  2.116507655E+02  6.852485360E+01 -1.086128679E+03  1.115702563E+03  1.250000000E+02  0.00000E+00  9.000E+00
      21     1     1     2   511   502 -1.002370911E+00  2.668044791E+01  1.288350926E+02  1.315725356E+02  6.877043296E-06  0.00000E+00  9.000E+00
#rwgt            1           1   5.9170647153654853E-002           5      249469           0
</event>
<event>
      5   9999  3.79277E-02  1.60671E+01 -1.00000E+00  1.74617E-01
      21    -1     0     0   502   501  0.000000000E+00  0.000000000E+00  4.954614413E+02  4.954614413E+02  0.000000000E+00  0.00000E+00  9.000E+00
      21    -1     0     0   512   502  0.000000000E+00  0.000000000E+00 -1.040884231E+02  1.040884231E+02  0.000000000E+00  0.00000E+00  9.000E+00
      25     1     1     2     0     0 -1.417694311E+02  1.147197772E+01  4.123939538E+01  1.937933579E+02  1.250000000E+02  0.00000E+00  9.000E+00
      25     1     1     2     0     0  1.273892634E+02 -4.305145248E+00  3.457208487E+02  3.890944152E+02  1.250000000E+02  0.00000E+00  9.000E+00
      21     1     1     2   512   501  1.438016761E+01 -7.166832474E+00  4.412774173E+00  1.666209123E+01  2.308477966E-07  0.00000E+00  9.000E+00
#rwgt            1           1   3.8720248641758860E-002           5      249631           0
</event>
<event>
      5   9999  3.79277E-02  3.02473E+01 -1.00000E+00  1.52793E-01
      21    -1     0     0   511   501  0.000000000E+00  0.000000000E+00  2.485271875E+02  2.485271875E+02  0.000000000E+00  0.00000E+00  9.000E+00
      21    -1     0     0   501   502  0.000000000E+00  0.000000000E+00 -2.047077756E+02  2.047077756E+02  0.000000000E+00  0.00000E+00  9.000E+00
      25     1     1     2     0     0  6.029537670E-02 -1.348795303E+02  5.146082978E+01  1.909599653E+02  1.250000000E+02  0.00000E+00  9.000E+00
      25     1     1     2     0     0 -1.304630491E+01  1.075617575E+02 -8.007142161E+01  1.837829435E+02  1.250000000E+02  0.00000E+00  9.000E+00
      21     1     1     2   511   502  1.298600953E+01  2.731777277E+01  7.243000372E+01  7.849205432E+01  1.651812370E-06  0.00000E+00  9.000E+00
#rwgt            1           1   4.2641818791689060E-002           5      249882           0
</event>
<event>
      5   9999  3.79277E-02  4.05535E+01 -1.00000E+00  1.44471E-01
      -5    -1     0     0     0   501  0.000000000E+00  0.000000000E+00  1.514218279E+02  1.514218279E+02  0.000000000E+00  0.00000E+00  9.000E+00
      21    -1     0     0   501   502  0.000000000E+00  0.000000000E+00 -4.253978603E+02  4.253978603E+02  0.000000000E+00  0.00000E+00  9.000E+00
      25     1     1     2     0     0  1.267419743E+02 -9.577988820E+01 -2.499672882E+02  3.214746649E+02  1.250000000E+02  0.00000E+00  9.000E+00
      25     1     1     2     0     0 -1.302330161E+02  5.537693230E+01  2.639338055E+01  1.906537533E+02  1.250000000E+02  0.00000E+00  9.000E+00
      -5     1     1     2     0   502  3.491041800E+00  4.040295590E+01 -5.040212482E+01  6.469126993E+01  1.168007728E-06  0.00000E+00  9.000E+00
#rwgt            1           1   3.3463348094364923E-002           5      250010           0
</event>
<event>
      5   9999  3.79277E-02  4.77280E+01 -1.00000E+00  1.40238E-01
      21    -1     0     0   502   501  0.000000000E+00  0.000000000E+00  1.469713642E+02  1.469713642E+02  0.000000000E+00  0.00000E+00  9.000E+00
       1    -1     0     0   501     0  0.000000000E+00  0.000000000E+00 -6.715917873E+02  6.715917873E+02  0.000000000E+00  0.00000E+00  9.000E+00
      25     1     1     2     0     0 -1.719204652E+02  2.657626664E+01 -4.398297404E+02  4.892219791E+02  1.250000000E+02  0.00000E+00  9.000E+00
      25     1     1     2     0     0  1.307910021E+02 -5.079042519E+01  4.313732265E+01  1.927998499E+02  1.250000000E+02  0.00000E+00  9.000E+00
       1     1     1     2   502     0  4.112946310E+01  2.421415854E+01 -1.279280054E+02  1.365413226E+02  3.015782986E-06  0.00000E+00  9.000E+00
#rwgt            1           1   3.1780067846739292E-002           5      250109           0
</event>
<event>
      5   9999  3.79277E-02  2.25385E+01 -1.00000E+00  1.62198E-01
      21    -1     0     0   502   501  0.000000000E+00  0.000000000E+00  1.909469416E+02  1.909469416E+02  0.000000000E+00  0.00000E+00  9.000E+00
      21    -1     0     0   511   502  0.000000000E+00  0.000000000E+00 -3.279414919E+02  3.279414919E+02  0.000000000E+00  0.00000E+00  9.000E+00
      25     1     1     2     0     0 -6.582641566E+00 -8.713538503E+01 -1.144709147E+02  1.906947739E+02  1.250000000E+02  0.00000E+00  9.000E+00
      25     1     1     2     0     0  2.907510464E+01  8.569511010E+01  1.127093878E+02  1.910953157E+02  1.250000000E+02  0.00000E+00  9.000E+00
      21     1     1     2   511   501 -2.249246307E+01  1.440274939E+00 -1.352330233E+02  1.370983438E+02  0.000000000E+00  0.00000E+00  9.000E+00
#rwgt            1           1   3.5454482900260646E-002           5      250269           0
</event>
<event>
      5   9999  3.79277E-02  3.47890E+01 -1.00000E+00  1.48703E-01
      21    -1     0     0   502   501  0.000000000E+00  0.000000000E+00  1.048603080E+03  1.048603080E+03  0.000000000E+00  0.00000E+00  9.000E+00
       1    -1     0     0   501     0  0.000000000E+00  0.000000000E+00 -1.948930511E+02  1.948930511E+02  0.000000000E+00  0.00000E+00  9.000E+00
      25     1     1     2     0     0 -1.319088065E+02 -2.458764352E+02  6.885243697E+02  7.533564643E+02  1.250000000E+02  0.00000E+00  9.000E+00
      25     1     1     2     0     0  1.021002830E+02  2.279396060E+02  2.646499726E+02  3.847668642E+02  1.250000000E+02  0.00000E+00  9.000E+00
       1     1     1     2   502     0  2.980852352E+01  1.793682921E+01 -9.946431340E+01  1.053728027E+02  0.000000000E+00  0.00000E+00  9.000E+00
#rwgt            1           1   3.3651158652161013E-002           5      250620           0
</event>
<event>
      5   9999  3.79277E-02  2.23880E+02 -1.00000E+00  1.09893E-01
      21    -1     0     0   511   501  0.000000000E+00  0.000000000E+00  4.567976577E+02  4.567976577E+02  0.000000000E+00  0.00000E+00  9.000E+00
      21    -1     0     0   501   502  0.000000000E+00  0.000000000E+00 -7.648092016E+02  7.648092016E+02  0.000000000E+00  0.00000E+00  9.000E+00
      25     1     1     2     0     0  1.032009069E+02 -2.759283275E+01  2.253820364E+01  1.659661478E+02  1.250000000E+02  0.00000E+00  9.000E+00
      25     1     1     2     0     0 -2.786778478E+02  1.666260063E+02 -6.071602783E+02  6.997815176E+02  1.250000000E+02  0.00000E+00  9.000E+00
      21     1     1     2   511   502  1.754769409E+02 -1.390331736E+02  2.766105308E+02  3.558591939E+02  5.394796609E-06  0.00000E+00  9.000E+00
#rwgt            1           1   3.9340944701446168E-002           5      250743           0
</event>
<event>
      5   9999  3.79277E-02  7.53413E+00 -1.00000E+00  2.11137E-01
       1    -1     0     0   502     0  0.000000000E+00  0.000000000E+00  7.702989964E+02  7.702989964E+02  0.000000000E+00  0.00000E+00  9.000E+00
      21    -1     0     0   501   502  0.000000000E+00  0.000000000E+00 -3.173261846E+02  3.173261846E+02  0.000000000E+00  0.00000E+00  9.000E+00
      25     1     1     2     0     0  1.085119006E+02 -2.156905273E+01  2.777405218E+01  1.692230911E+02  1.250000000E+02  0.00000E+00  9.000E+00
      25     1     1     2     0     0 -1.089777265E+02  1.404933846E+01 -2.184968767E+02  2.746623635E+02  1.250000000E+02  0.00000E+00  9.000E+00
       1     1     1     2   501     0  4.658259274E-01  7.519714266E+00  6.436956364E+02  6.437397264E+02  1.078959322E-05  0.00000E+00  9.000E+00
#rwgt            1           1   2.6610014749181028E-002           5      250862           0
</event>
<event>
      5   9999  3.79277E-02  1.56043E+01 -1.00000E+00  1.75783E-01
      21    -1     0     0   502   501  0.000000000E+00  0.000000000E+00  1.353574763E+02  1.353574763E+02  0.000000000E+00  0.00000E+00  9.000E+00
      21    -1     0     0   511   502  0.000000000E+00  0.000000000E+00 -7.437963017E+02  7.437963017E+02  0.000000000E+00  0.00000E+00  9.000E+00
      25     1     1     2     0     0 -9.204396529E+00  1.607291978E+02 -3.368700844E+02  3.937322056E+02  1.250000000E+02  0.00000E+00  9.000E+00
      25     1     1     2     0     0  1.848052368E+01 -1.481813702E+02  1.787259916E+01  1.955599090E+02  1.250000000E+02  0.00000E+00  9.000E+00
      21     1     1     2   511   501 -9.276127151E+00 -1.254782762E+01 -2.894413401E+02  2.898616634E+02  0.000000000E+00  0.00000E+00  9.000E+00
#rwgt            1           1   4.5518855850553937E-002           5      251090           0
</event>
<event>
      5   9999  3.79277E-02  1.32541E+01 -1.00000E+00  1.82601E-01
      21    -1     0     0   502   501  0.000000000E+00  0.000000000E+00  8.347043975E+01  8.347043975E+01  0.000000000E+00  0.00000E+00  9.000E+00
      21    -1     0     0   501   512  0.000000000E+00  0.000000000E+00 -5.413413962E+02  5.413413962E+02  0.000000000E+00  0.00000E+00  9.000E+00
      25     1     1     2     0     0  1.474162374E+01 -1.144628693E+02 -5.630259537E+01  1.792039234E+02  1.250000000E+02  0.00000E+00  9.000E+00
      25     1     1     2     0     0 -3.494412864E+00  1.074506433E+02 -2.927409303E+02  3.359763444E+02  1.250000000E+02  0.00000E+00  9.000E+00
      21     1     1     2   502   512 -1.124721088E+01  7.012225917E+00 -1.088274308E+02  1.096315682E+02  1.348699152E-06  0.00000E+00  9.000E+00
#rwgt            1           1   3.5852765605454098E-002           5      251260           0
</event>
<event>
      5   9999  3.79277E-02  3.90238E+01 -1.00000E+00  1.45509E-01
       3    -1     0     0   502     0  0.000000000E+00  0.000000000E+00  6.882018819E+02  6.882018819E+02  0.000000000E+00  0.00000E+00  9.000E+00
      21    -1     0     0   501   502  0.000000000E+00  0.000000000E+00 -1.210118461E+02  1.210118461E+02  0.000000000E+00  0.00000E+00  9.000E+00
      25     1     1     2     0     0  1.566004410E+02 -7.753554802E+01  3.573350566E+02  4.169517982E+02  1.250000000E+02  0.00000E+00  9.000E+00
      25     1     1     2     0     0 -1.703589974E+02  4.101760973E+01  4.119961715E+01  2.191507261E+02  1.250000000E+02  0.00000E+00  9.000E+00
       3     1     1     2   501     0  1.375855637E+01  3.651793829E+01  1.686553621E+02  1.731112037E+02  0.000000000E+00  0.00000E+00  9.000E+00
#rwgt            1           1   3.4945544977927033E-002           5      251412           0
</event>
<event>
      5   9999  3.79277E-02  1.28968E+01 -1.00000E+00  1.83796E-01
      21    -1     0     0   511   501  0.000000000E+00  0.000000000E+00  3.230108966E+01  3.230108966E+01  0.000000000E+00  0.00000E+00  9.000E+00
      21    -1     0     0   501   502  0.000000000E+00  0.000000000E+00 -1.320609071E+03  1.320609071E+03  0.000000000E+00  0.00000E+00  9.000E+00
      25     1     1     2     0     0 -5.512435309E+01 -1.339169550E+02 -5.594314370E+02  5.912368204E+02  1.250000000E+02  0.00000E+00  9.000E+00
      25     1     1     2     0     0  4.868758503E+01  1.450926659E+02 -7.183288121E+02  7.450125133E+02  1.250000000E+02  0.00000E+00  9.000E+00
      21     1     1     2   511   502  6.436768053E+00 -1.117571096E+01 -1.054773214E+01  1.666082686E+01  4.298152060E-07  0.00000E+00  9.000E+00
#rwgt            1           1   4.3990527874725925E-002           5      251528           0
</event>
<event>
      5   9999  3.79277E-02  5.25869E+01 -1.00000E+00  1.37837E-01
      21    -1     0     0   502   512  0.000000000E+00  0.000000000E+00  2.394284569E+03  2.394284569E+03  0.000000000E+00  0.00000E+00  9.000E+00
      21    -1     0     0   501   502  0.000000000E+00  0.000000000E+00 -3.299573625E+01  3.299573625E+01  0.000000000E+00  0.00000E+00  9.000E+00
      25     1     1     2     0     0 -1.141575720E+02  6.001513799E+01  4.855936676E+02  5.177450898E+02  1.250000000E+02  0.00000E+00  9.000E+00
      25     1     1     2     0     0  9.414195721E+01 -1.086439529E+02  5.366838943E+02  5.694917199E+02  1.250000000E+02  0.00000E+00  9.000E+00
      21     1     1     2   501   512  2.001561478E+01  4.862881495E+01  1.339011271E+03  1.340043496E+03  2.642899792E-05  0.00000E+00  9.000E+00
#rwgt            1           1   4.7207333321900163E-002           5      251780           0
</event>
<event>
      5   9999  3.79277E-02  4.59608E+01 -1.00000E+00  1.41195E-01
      21    -1     0     0   502   511  0.000000000E+00  0.000000000E+00  6.405199528E+02  6.405199528E+02  0.000000000E+00  0.00000E+00  9.000E+00
      21    -1     0     0   501   502  0.000000000E+00  0.000000000E+00 -8.987888488E+01  8.987888488E+01  0.000000000E+00  0.00000E+00  9.000E+00
      25     1     1     2     0     0  1.339894338E+02  1.149993816E+02  1.716989005E+02  2.761947475E+02  1.250000000E+02  0.00000E+00  9.000E+00
      25     1     1     2     0     0 -1.420799191E+02 -6.975623400E+01  2.796690524E+02  3.448077935E+02  1.250000000E+02  0.00000E+00  9.000E+00
      21     1     1     2   501   511  8.090485346E+00 -4.524314757E+01  9.927311503E+01  1.093962967E+02  0.000000000E+00  0.00000E+00  9.000E+00
#rwgt            1           1   4.0440475796295984E-002           5      251895           0
</event>
<event>
      5   9999  3.79277E-02  8.10635E+01 -1.00000E+00  1.28072E-01
      21    -1     0     0   512   501  0.000000000E+00  0.000000000E+00  1.516266987E+02  1.516266987E+02  0.000000000E+00  0.00000E+00  9.000E+00
      21    -1     0     0   501   502  0.000000000E+00  0.000000000E+00 -7.303173167E+02  7.303173167E+02  0.000000000E+00  0.00000E+00  9.000E+00
      25     1     1     2     0     0 -1.492962303E+02  1.593040646E+02 -1.538290033E+02  2.948821996E+02  1.250000000E+02  0.00000E+00  9.000E+00
      25     1     1     2     0     0  2.221388919E+02 -1.948743553E+02 -3.669264764E+02  4.874235742E+02  1.250000000E+02  0.00000E+00  9.000E+00
      21     1     1     2   512   502 -7.284266154E+01  3.557029067E+01 -5.793513840E+01  9.963824155E+01  1.784161275E-06  0.00000E+00  9.000E+00
#rwgt            1           1   2.9785127544215959E-002           5      251991           0
</event>
<event>
      5   9999  3.79277E-02  1.15097E+02 -1.00000E+00  1.21142E-01
       2    -1     0     0   502     0  0.000000000E+00  0.000000000E+00  5.395895458E+02  5.395895458E+02  0.000000000E+00  0.00000E+00  9.000E+00
      21    -1     0     0   501   502  0.000000000E+00  0.000000000E+00 -3.100403355E+02  3.100403355E+02  0.000000000E+00  0.00000E+00  9.000E+00
      25     1     1     2     0     0  1.136609103E+01 -1.275991646E+02 -1.687056578E+02  2.459620576E+02  1.250000000E+02  0.00000E+00  9.000E+00
      25     1     1     2     0     0 -1.192484880E+02  8.748992753E+01  4.782927890E+00  1.937074230E+02  1.250000000E+02  0.00000E+00  9.000E+00
       2     1     1     2   501     0  1.078823970E+02  4.010923702E+01  3.934719401E+02  4.099604007E+02  0.000000000E+00  0.00000E+00  9.000E+00
#rwgt            1           1   3.5478246390494121E-002           5      252120           0
</event>
<event>
      5   9999 -4.67344E-02  8.92090E+00 -1.00000E+00  2.01670E-01
      21    -1     0     0   502   501  0.000000000E+00  0.000000000E+00  8.332444627E+02  8.332444627E+02  0.000000000E+00  0.00000E+00  9.000E+00
      21    -1     0     0   511   502  0.000000000E+00  0.000000000E+00 -1.122729813E+02  1.122729813E+02  0.000000000E+00  0.00000E+00  9.000E+00
      25     1     1     2     0     0  1.042573198E+02  4.669971224E+01  4.841523192E+02  5.129121953E+02  1.250000000E+02  0.00000E+00  9.000E+00
      25     1     1     2     0     0 -9.699427095E+01 -4.151988015E+01  3.144565981E+02  3.544569666E+02  1.250000000E+02  0.00000E+00  9.000E+00
      21     1     1     2   511   501 -7.263048814E+00 -5.179832088E+00 -7.763743596E+01  7.814828214E+01  1.348699152E-06  0.00000E+00  9.000E+00
#rwgt            1           1 -0.36653686576133759                5      252165           0
</event>
<event>
      5   9999  3.79277E-02  1.91261E+01 -1.00000E+00  1.67986E-01
      21    -1     0     0   502   501  0.000000000E+00  0.000000000E+00  2.063757007E+02  2.063757007E+02  0.000000000E+00  0.00000E+00  9.000E+00
      21    -1     0     0   512   502  0.000000000E+00  0.000000000E+00 -1.619561156E+02  1.619561156E+02  0.000000000E+00  0.00000E+00  9.000E+00
      25     1     1     2     0     0  6.861242613E+00 -8.060864547E+00  1.443488418E+02  1.912423654E+02  1.250000000E+02  0.00000E+00  9.000E+00
      25     1     1     2     0     0  7.182465516E+00  2.104481276E+01 -8.444255061E+01  1.524795603E+02  1.250000000E+02  0.00000E+00  9.000E+00
      21     1     1     2   512   501 -1.404370813E+01 -1.298394821E+01 -1.548670606E+01  2.460989057E+01  3.371747881E-07  0.00000E+00  9.000E+00
#rwgt            1           1   3.3297107818196982E-002           5      252391           0
</event>
<event>
      5   9999  3.79277E-02  3.07551E+01 -1.00000E+00  1.52294E-01
      21    -1     0     0   502   501  0.000000000E+00  0.000000000E+00  1.539004812E+02  1.539004812E+02  0.000000000E+00  0.00000E+00  9.000E+00
       2    -1     0     0   501     0  0.000000000E+00  0.000000000E+00 -4.713252174E+02  4.713252174E+02  0.000000000E+00  0.00000E+00  9.000E+00
      25     1     1     2     0     0 -1.509796505E+02 -7.233592134E+01 -2.142357256E+00  2.089424085E+02  1.250000000E+02  0.00000E+00  9.000E+00
      25     1     1     2     0     0  1.406794334E+02  1.013148929E+02 -1.858036828E+02  2.832020816E+02  1.250000000E+02  0.00000E+00  9.000E+00
       2     1     1     2   502     0  1.030021716E+01 -2.897897152E+01 -1.294786962E+02  1.330812084E+02  3.303624740E-06  0.00000E+00  9.000E+00
#rwgt            1           1   5.0668735357817372E-002           5      252546           0
</event>
<event>
      5   9999 -3.79277E-02  1.18273E+02 -1.00000E+00  1.20636E-01
      21    -1     0     0   502   501  0.000000000E+00  0.000000000E+00  1.472598501E+02  1.472598501E+02  0.000000000E+00  0.00000E+00  9.000E+00
      21    -1     0     0   501   511  0.000000000E+00  0.000000000E+00 -6.183874133E+02  6.183874133E+02  0.000000000E+00  0.00000E+00  9.000E+00
      25     1     1     2     0     0 -8.489376953E+01 -9.233923414E+01 -2.869877903E+02  3.372246700E+02  1.250000000E+02  0.00000E+00  9.000E+00
      25     1     1     2     0     0  2.750472292E+01  1.957558303E+02 -3.252903411E+01  2.361355394E+02  1.250000000E+02  0.00000E+00  9.000E+00
      21     1     1     2   502   511  5.738904661E+01 -1.034165962E+02 -1.516107388E+02  1.922870540E+02  3.303624740E-06  0.00000E+00  9.000E+00
#rwgt            1           1 -0.13482788901236875                5      252782           0
</event>
<event>
      5   9999  3.79277E-02  3.43236E+01 -1.00000E+00  1.49087E-01
      21    -1     0     0   512   501  0.000000000E+00  0.000000000E+00  3.849235421E+02  3.849235421E+02  0.000000000E+00  0.00000E+00  9.000E+00
      21    -1     0     0   501   502  0.000000000E+00  0.000000000E+00 -3.812560529E+02  3.812560529E+02  0.000000000E+00  0.00000E+00  9.000E+00
      25     1     1     2     0     0  7.460797529E+01 -2.555301634E+02 -2.069903443E+02  3.596276088E+02  1.250000000E+02  0.00000E+00  9.000E+00
      25     1     1     2     0     0 -1.004951699E+02  2.329921629E+02  1.157473100E+02  3.056256974E+02  1.250000000E+02  0.00000E+00  9.000E+00
      21     1     1     2   512   502  2.588719461E+01  2.253800046E+01  9.491052348E+01  1.009262888E+02  0.000000000E+00  0.00000E+00  9.000E+00
#rwgt            1           1   3.4376775591067131E-002           5      252851           0
</event>
<event>
      5   9999  3.79277E-02  1.67430E+01 -1.00000E+00  1.73001E-01
      21    -1     0     0   502   511  0.000000000E+00  0.000000000E+00  3.538373549E+02  3.538373549E+02  0.000000000E+00  0.00000E+00  9.000E+00
      21    -1     0     0   501   502  0.000000000E+00  0.000000000E+00 -1.874296467E+02  1.874296467E+02  0.000000000E+00  0.00000E+00  9.000E+00
      25     1     1     2     0     0  1.886527876E+02 -1.823373109E+01  7.372291805E+01  2.387098906E+02  1.250000000E+02  0.00000E+00  9.000E+00
      25     1     1     2     0     0 -1.900974499E+02  1.553138236E+00  2.048157416E+01  2.284380607E+02  1.250000000E+02  0.00000E+00  9.000E+00
      21     1     1     2   501   511  1.444662325E+00  1.668059285E+01  7.220321601E+01  7.411905038E+01  9.536743164E-07  0.00000E+00  9.000E+00
#rwgt            1           1   4.4766442456055620E-002           5      253122           0
</event>
<event>
      5   9999  3.79277E-02  9.91909E+00 -1.00000E+00  1.96166E-01
       2    -1     0     0   502     0  0.000000000E+00  0.000000000E+00  3.542532791E+03  3.542532791E+03  0.000000000E+00  0.00000E+00  9.000E+00
      21    -1     0     0   501   502  0.000000000E+00  0.000000000E+00 -2.117301242E+01  2.117301242E+01  0.000000000E+00  0.00000E+00  9.000E+00
      25     1     1     2     0     0  1.119502220E+02 -4.815232755E+01  8.498134767E+02  8.675594758E+02  1.250000000E+02  0.00000E+00  9.000E+00
      25     1     1     2     0     0 -1.218123321E+02  4.921401861E+01  6.567752428E+02  6.813508520E+02  1.250000000E+02  0.00000E+00  9.000E+00
       2     1     1     2   501     0  9.862110058E+00 -1.061691055E+00  2.014771059E+03  2.014795476E+03  2.157918644E-05  0.00000E+00  9.000E+00
#rwgt            1           1   3.5267917176216947E-002           5      253638           0
</event>
<event>
      5   9999  3.79277E-02  9.04652E+01 -1.00000E+00  1.25817E-01
      21    -1     0     0   502   501  0.000000000E+00  0.000000000E+00  4.545250656E+02  4.545250656E+02  0.000000000E+00  0.00000E+00  9.000E+00
      21    -1     0     0   511   502  0.000000000E+00  0.000000000E+00 -2.781972490E+02  2.781972490E+02  0.000000000E+00  0.00000E+00  9.000E+00
      25     1     1     2     0     0  1.668477188E+02 -7.706812214E+01  2.988263730E+02  3.724242983E+02  1.250000000E+02  0.00000E+00  9.000E+00
      25     1     1     2     0     0 -2.116800475E+02 -1.506832632E+00 -6.958849733E+01  2.554961291E+02  1.250000000E+02  0.00000E+00  9.000E+00
      21     1     1     2   511   501  4.483232864E+01  7.857495477E+01 -5.291005910E+01  1.048018872E+02  9.536743164E-07  0.00000E+00  9.000E+00
#rwgt            1           1   5.7410079342943815E-002           5      253836           0
</event>
<event>
      5   9999  3.79277E-02  3.42439E+01 -1.00000E+00  1.49153E-01
      21    -1     0     0   512   501  0.000000000E+00  0.000000000E+00  5.553809935E+02  5.553809935E+02  0.000000000E+00  0.00000E+00  9.000E+00
      21    -1     0     0   501   502  0.000000000E+00  0.000000000E+00 -1.767188228E+02  1.767188228E+02  0.000000000E+00  0.00000E+00  9.000E+00
      25     1     1     2     0     0 -1.422414995E+02  1.112491648E+02  1.989145130E+02  2.963123426E+02  1.250000000E+02  0.00000E+00  9.000E+00
      25     1     1     2     0     0  1.097099059E+02 -1.219422775E+02 -4.279607036E+01  2.106245146E+02  1.250000000E+02  0.00000E+00  9.000E+00
      21     1     1     2   512   502  3.253159360E+01  1.069311275E+01  2.225437281E+02  2.251629591E+02  3.814697266E-06  0.00000E+00  9.000E+00
#rwgt            1           1   4.0189461628418327E-002           5      253972           0
</event>
<event>
      5   9999  3.79277E-02  9.47632E+01 -1.00000E+00  1.24888E-01
      21    -1     0     0   502   501  0.000000000E+00  0.000000000E+00  5.558280652E+02  5.558280652E+02  0.000000000E+00  0.00000E+00  9.000E+00
      21    -1     0     0   501   511  0.000000000E+00  0.000000000E+00 -2.562384846E+02  2.562384846E+02  0.000000000E+00  0.00000E+00  9.000E+00
      25     1     1     2     0     0 -1.897241835E+02 -1.364023401E+01  6.031740649E+01  2.354665822E+02  1.250000000E+02  0.00000E+00  9.000E+00
      25     1     1     2     0     0  9.520499537E+01  2.043635859E+01  3.772725213E+02  4.091957859E+02  1.250000000E+02  0.00000E+00  9.000E+00
      21     1     1     2   502   511  9.451918815E+01 -6.796124572E+00 -1.380003472E+02  1.674041817E+02  1.907348633E-06  0.00000E+00  9.000E+00
#rwgt            1           1   3.7389891534233395E-002           5      254150           0
</event>
<event>
      5   9999  3.79277E-02  1.89048E+02 -1.00000E+00  1.12546E-01
      21    -1     0     0   512   501  0.000000000E+00  0.000000000E+00  5.536389989E+02  5.536389989E+02  0.000000000E+00  0.00000E+00  9.000E+00
      21    -1     0     0   501   502  0.000000000E+00  0.000000000E+00 -5.619755978E+02  5.619755978E+02  0.000000000E+00  0.00000E+00  9.000E+00
      25     1     1     2     0     0 -1.925607815E+01 -7.748361853E+00  4.355374992E+01  1.339879203E+02  1.250000000E+02  0.00000E+00  9.000E+00
      25     1     1     2     0     0  1.470845894E+02  1.470281020E+02 -4.665668096E+02  5.258904135E+02  1.250000000E+02  0.00000E+00  9.000E+00
      21     1     1     2   512   502 -1.278285113E+02 -1.392797401E+02  4.146764607E+02  4.557362629E+02  5.394796609E-06  0.00000E+00  9.000E+00
#rwgt            2          11   2.9491086126738541E-003           5      254368           0
</event>
<event>
      5   9999  3.79277E-02  1.67233E+01 -1.00000E+00  1.73047E-01
      21    -1     0     0   502   501  0.000000000E+00  0.000000000E+00  2.664168154E+02  2.664168154E+02  0.000000000E+00  0.00000E+00  9.000E+00
      21    -1     0     0   511   502  0.000000000E+00  0.000000000E+00 -1.646564925E+02  1.646564925E+02  0.000000000E+00  0.00000E+00  9.000E+00
      25     1     1     2     0     0  4.568078034E+01  1.749368147E+01 -9.922145343E+01  1.669211173E+02  1.250000000E+02  0.00000E+00  9.000E+00
      25     1     1     2     0     0 -3.172273898E+01 -8.282630185E+00  2.089068128E+02  2.456460677E+02  1.250000000E+02  0.00000E+00  9.000E+00
      21     1     1     2   511   501 -1.395804136E+01 -9.211051288E+00 -7.925036428E+00  1.850612296E+01  0.000000000E+00  0.00000E+00  9.000E+00
#rwgt            1           1   5.4094095127908852E-002           5      254388           0
</event>
<event>
      5   9999  3.79277E-02  3.80452E+01 -1.00000E+00  1.46203E-01
      21    -1     0     0   502   512  0.000000000E+00  0.000000000E+00  2.736655861E+02  2.736655861E+02  0.000000000E+00  0.00000E+00  9.000E+00
      21    -1     0     0   501   502  0.000000000E+00  0.000000000E+00 -2.794316685E+02  2.794316685E+02  0.000000000E+00  0.00000E+00  9.000E+00
      25     1     1     2     0     0 -1.194491645E+02  1.416178062E+02 -1.382286311E+02  2.627848177E+02  1.250000000E+02  0.00000E+00  9.000E+00
      25     1     1     2     0     0  8.348834459E+01 -1.540377448E+02  1.315695777E+02  2.522567824E+02  1.250000000E+02  0.00000E+00  9.000E+00
      21     1     1     2   501   512  3.596081991E+01  1.241993856E+01  8.929710060E-01  3.805565450E+01  4.490172617E-07  0.00000E+00  9.000E+00
#rwgt            1           1   4.7309713404603534E-002           5      254527           0
</event>
<event>
      5   9999  3.79277E-02  1.18141E+02 -1.00000E+00  1.20657E-01
      21    -1     0     0   502   501  0.000000000E+00  0.000000000E+00  5.674507373E+02  5.674507373E+02  0.000000000E+00  0.00000E+00  9.000E+00
      21    -1     0     0   501   511  0.000000000E+00  0.000000000E+00 -3.944304688E+02  3.944304688E+02  0.000000000E+00  0.00000E+00  9.000E+00
      25     1     1     2     0     0 -1.739797421E+02 -6.256778464E+01  3.364907888E+02  4.037755927E+02  1.250000000E+02  0.00000E+00  9.000E+00
      25     1     1     2     0     0  1.793382147E+02 -5.545137965E+01  1.167826757E+02  2.539689826E+02  1.250000000E+02  0.00000E+00  9.000E+00
      21     1     1     2   502   511 -5.358472651E+00  1.180191643E+02 -2.802531959E+02  3.041366308E+02  3.814697266E-06  0.00000E+00  9.000E+00
#rwgt            2          11   3.6146566264205746E-003           5      254694           0
</event>
<event>
      5   9999  3.79277E-02  2.62731E+01 -1.00000E+00  1.57152E-01
      21    -1     0     0   502   501  0.000000000E+00  0.000000000E+00  4.057099249E+02  4.057099249E+02  0.000000000E+00  0.00000E+00  9.000E+00
      21    -1     0     0   501   512  0.000000000E+00  0.000000000E+00 -6.567712764E+01  6.567712764E+01  0.000000000E+00  0.00000E+00  9.000E+00
      25     1     1     2     0     0  1.365581102E+01  2.852938194E+01  1.315942239E+02  1.842347594E+02  1.250000000E+02  0.00000E+00  9.000E+00
      25     1     1     2     0     0  5.517787066E+00 -1.056698366E+01  2.238715002E+02  2.566818181E+02  1.250000000E+02  0.00000E+00  9.000E+00
      21     1     1     2   502   512 -1.917359809E+01 -1.796239828E+01 -1.543292691E+01  3.047047503E+01  9.830249847E-07  0.00000E+00  9.000E+00
#rwgt            1           1   5.6973199087648491E-003           5      254774           0
</event>
<event>
      5   9999  3.79277E-02  1.81710E+01 -1.00000E+00  1.69881E-01
      21    -1     0     0   511   501  0.000000000E+00  0.000000000E+00  2.026251587E+02  2.026251587E+02  0.000000000E+00  0.00000E+00  9.000E+00
      21    -1     0     0   501   502  0.000000000E+00  0.000000000E+00 -3.301421930E+02  3.301421930E+02  0.000000000E+00  0.00000E+00  9.000E+00
      25     1     1     2     0     0 -1.458737396E+02 -9.045665111E-01  9.385882334E+01  2.138093657E+02  1.250000000E+02  0.00000E+00  9.000E+00
      25     1     1     2     0     0  1.633164141E+02  5.997666594E+00 -2.192349744E+02  3.006612665E+02  1.250000000E+02  0.00000E+00  9.000E+00
      21     1     1     2   511   502 -1.744267456E+01 -5.093100083E+00 -2.140883292E+00  1.829671953E+01  4.430433734E-07  0.00000E+00  9.000E+00
#rwgt            1           1   3.2198039782954893E-002           5      255000           0
</event>
<event>
      5   9999  3.79277E-02  1.45936E+02 -1.00000E+00  1.16868E-01
      21    -1     0     0   512   501  0.000000000E+00  0.000000000E+00  3.816664409E+02  3.816664409E+02  0.000000000E+00  0.00000E+00  9.000E+00
      21    -1     0     0   501   502  0.000000000E+00  0.000000000E+00 -4.086188931E+02  4.086188931E+02  0.000000000E+00  0.00000E+00  9.000E+00
      25     1     1     2     0     0  2.389672191E+02  1.279923839E+02 -1.981100864E+02  3.582736223E+02  1.250000000E+02  0.00000E+00  9.000E+00
      25     1     1     2     0     0 -2.060112041E+02  1.417355301E+01  1.509155289E+02  2.846787711E+02  1.250000000E+02  0.00000E+00  9.000E+00
      21     1     1     2   512   502 -3.295601498E+01 -1.421659369E+02  2.024210529E+01  1.473329405E+02  1.768159506E-06  0.00000E+00  9.000E+00
#rwgt            1           1   3.6728787762202099E-002           5      255380           0
</event>
<event>
      5   9999  3.79277E-02  2.54765E+01 -1.00000E+00  1.58139E-01
       2    -1     0     0   502     0  0.000000000E+00  0.000000000E+00  2.073896834E+03  2.073896834E+03  0.000000000E+00  0.00000E+00  9.000E+00
      21    -1     0     0   501   502  0.000000000E+00  0.000000000E+00 -1.374592229E+02  1.374592229E+02  0.000000000E+00  0.00000E+00  9.000E+00
      25     1     1     2     0     0  7.021463161E+01 -1.091080836E+02  1.530078355E+02  2.363706118E+02  1.250000000E+02  0.00000E+00  9.000E+00
      25     1     1     2     0     0 -9.308793641E+01  9.788928205E+01 -7.188791228E+00  1.841856514E+02  1.250000000E+02  0.00000E+00  9.000E+00
       2     1     1     2   501     0  2.287330479E+01  1.121880160E+01  1.790618566E+03  1.790799793E+03  0.000000000E+00  0.00000E+00  9.000E+00
#rwgt            1           1   4.0831308612050317E-002           5      255582           0
</event>
<event>
      5   9999  3.79277E-02  3.00661E+01 -1.00000E+00  1.52974E-01
       2    -1     0     0   502     0  0.000000000E+00  0.000000000E+00  1.673913642E+03  1.673913642E+03  0.000000000E+00  0.00000E+00  9.000E+00
      21    -1     0     0   501   502  0.000000000E+00  0.000000000E+00 -8.088109978E+02  8.088109978E+02  0.000000000E+00  0.00000E+00  9.000E+00
      25     1     1     2     0     0 -4.627797861E+02  1.522638805E+02 -2.925996416E+02  5.818839833E+02  1.250000000E+02  0.00000E+00  9.000E+00
      25     1     1     2     0     0  4.843949144E+02 -1.313652289E+02 -1.913269378E+02  5.514764307E+02  1.250000000E+02  0.00000E+00  9.000E+00
       2     1     1     2   501     0 -2.161512830E+01 -2.089865159E+01  1.349029224E+03  1.349364226E+03  2.157918644E-05  0.00000E+00  9.000E+00
#rwgt            1           1   3.4293350492278440E-002           5      255761           0
</event>
<event>
      5   9999  3.79277E-02  2.53111E+01 -1.00000E+00  1.58350E-01
      21    -1     0     0   502   501  0.000000000E+00  0.000000000E+00  3.789615097E+01  3.789615097E+01  0.000000000E+00  0.00000E+00  9.000E+00
      21    -1     0     0   511   502  0.000000000E+00  0.000000000E+00 -1.213091005E+03  1.213091005E+03  0.000000000E+00  0.00000E+00  9.000E+00
      25     1     1     2     0     0  1.141280749E+02  1.043269284E+01 -2.295133970E+02  2.853689857E+02  1.250000000E+02  0.00000E+00  9.000E+00
      25     1     1     2     0     0 -9.780391441E+01 -2.977620348E+01 -6.880376388E+02  7.067340521E+02  1.250000000E+02  0.00000E+00  9.000E+00
      21     1     1     2   511   501 -1.632416048E+01  1.934351065E+01 -2.576438182E+02  2.588841183E+02  3.814697266E-06  0.00000E+00  9.000E+00
#rwgt            1           1   3.7514203321050411E-002           5      256049           0
</event>
<event>
      5   9999  3.79277E-02  5.30953E+01 -1.00000E+00  1.37603E-01
      21    -1     0     0   502   512  0.000000000E+00  0.000000000E+00  1.892339351E+02  1.892339351E+02  0.000000000E+00  0.00000E+00  9.000E+00
      21    -1     0     0   501   502  0.000000000E+00  0.000000000E+00 -4.867350350E+02  4.867350350E+02  0.000000000E+00  0.00000E+00  9.000E+00
      25     1     1     2     0     0  5.763589894E+01  1.631137219E+02 -2.105166215E+02  2.997836404E+02  1.250000000E+02  0.00000E+00  9.000E+00
      25     1     1     2     0     0 -4.728208156E+00 -1.586539623E+02 -1.790163574E+02  2.699357181E+02  1.250000000E+02  0.00000E+00  9.000E+00
      21     1     1     2   501   512 -5.290769079E+01 -4.459759601E+00  9.203187908E+01  1.062496116E+02  2.336015456E-06  0.00000E+00  9.000E+00
#rwgt            2          11   1.4642512746204500E-003           5      256255           0
</event>
<event>
      5   9999  3.79277E-02  1.68829E+01 -1.00000E+00  1.72678E-01
      21    -1     0     0   502   511  0.000000000E+00  0.000000000E+00  1.926190438E+03  1.926190438E+03  0.000000000E+00  0.00000E+00  9.000E+00
      21    -1     0     0   501   502  0.000000000E+00  0.000000000E+00 -3.515023728E+01  3.515023728E+01  0.000000000E+00  0.00000E+00  9.000E+00
      25     1     1     2     0     0  1.618204440E+02 -4.235593259E+01  4.699459314E+02  5.142509694E+02  1.250000000E+02  0.00000E+00  9.000E+00
      25     1     1     2     0     0 -1.483555191E+02  5.254069496E+01  7.706764588E+02  7.964528164E+02  1.250000000E+02  0.00000E+00  9.000E+00
      21     1     1     2   501   511 -1.346492498E+01 -1.018476237E+01  6.504178103E+02  6.506368891E+02  1.321449896E-05  0.00000E+00  9.000E+00
#rwgt            1           1  0.18645740101231728                5      256305           0
</event>
<event>
      5   9999  3.79277E-02  4.36551E+00 -1.00000E+00  2.54832E-01
      21    -1     0     0   502   501  0.000000000E+00  0.000000000E+00  4.820137299E+01  4.820137299E+01  0.000000000E+00  0.00000E+00  9.000E+00
      21    -1     0     0   501   512  0.000000000E+00  0.000000000E+00 -9.638942075E+02  9.638942075E+02  0.000000000E+00  0.00000E+00  9.000E+00
      25     1     1     2     0     0 -1.370815978E+02 -3.851890149E+01 -2.315944871E+02  2.992257955E+02  1.250000000E+02  0.00000E+00  9.000E+00
      25     1     1     2     0     0  1.386370841E+02  4.259788932E+01 -6.264604912E+02  6.550668426E+02  1.250000000E+02  0.00000E+00  9.000E+00
      21     1     1     2   502   512 -1.555486306E+00 -4.078987837E+00 -5.763785625E+01  5.780294242E+01  6.743495762E-07  0.00000E+00  9.000E+00
#rwgt            1           1  0.19741831375598687                5      256542           0
</event>
<event>
      5   9999  3.79277E-02  4.10574E+01 -1.00000E+00  1.44141E-01
      21    -1     0     0   502   501  0.000000000E+00  0.000000000E+00  1.389116749E+02  1.389116749E+02  0.000000000E+00  0.00000E+00  9.000E+00
      21    -1     0     0   501   511  0.000000000E+00  0.000000000E+00 -4.986424599E+02  4.986424599E+02  0.000000000E+00  0.00000E+00  9.000E+00
      25     1     1     2     0     0 -3.993554580E+01 -1.058156365E+02  5.871187213E+01  1.785045677E+02  1.250000000E+02  0.00000E+00  9.000E+00
      25     1     1     2     0     0  1.726468177E+01  7.158496638E+01 -3.547693915E+02  3.832868348E+02  1.250000000E+02  0.00000E+00  9.000E+00
      21     1     1     2   502   511  2.267086403E+01  3.423067014E+01 -6.367326566E+01  7.576273236E+01  1.348699152E-06  0.00000E+00  9.000E+00
#rwgt            1           1   4.2608022299868473E-002           5      256994           0
</event>
<event>
      5   9999  3.79277E-02  2.94796E+01 -1.00000E+00  1.53570E-01
      21    -1     0     0   502   501  0.000000000E+00  0.000000000E+00  2.606596594E+01  2.606596594E+01  0.000000000E+00  0.00000E+00  9.000E+00
      21    -1     0     0   501   512  0.000000000E+00  0.000000000E+00 -1.127613575E+03  1.127613575E+03  0.000000000E+00  0.00000E+00  9.000E+00
      25     1     1     2     0     0  4.549553263E+00 -1.047092158E+02 -5.567721718E+02  5.801766710E+02  1.250000000E+02  0.00000E+00  9.000E+00
      25     1     1     2     0     0  1.256794167E+01  8.070843464E+01 -4.392341834E+02  4.639218387E+02  1.250000000E+02  0.00000E+00  9.000E+00
      21     1     1     2   502   512 -1.711749494E+01  2.400078116E+01 -1.055412536E+02  1.095810309E+02  1.348699152E-06  0.00000E+00  9.000E+00
#rwgt            1           1   6.2389939808460616E-002           5      257219           0
</event>
<event>
      5   9999  3.79277E-02  1.93125E+01 -1.00000E+00  1.67632E-01
      21    -1     0     0   502   501  0.000000000E+00  0.000000000E+00  5.880264476E+02  5.880264476E+02  0.000000000E+00  0.00000E+00  9.000E+00
      21    -1     0     0   501   511  0.000000000E+00  0.000000000E+00 -1.295112475E+02  1.295112475E+02  0.000000000E+00  0.00000E+00  9.000E+00
      25     1     1     2     0     0 -6.099474285E+01 -1.629516859E+01  5.018118676E+02  5.209856444E+02  1.250000000E+02  0.00000E+00  9.000E+00
      25     1     1     2     0     0  5.816516751E+01  3.539925468E+01  7.163607772E+00  1.425223183E+02  1.250000000E+02  0.00000E+00  9.000E+00
      21     1     1     2   502   511  2.829575345E+00 -1.910408609E+01 -5.046027530E+01  5.402973242E+01  6.743495762E-07  0.00000E+00  9.000E+00
#rwgt            1           1   2.4229941846961475E-002           5      257373           0
</event>
<event>
      5   9999  3.79277E-02  1.09812E+02 -1.00000E+00  1.22027E-01
      21    -1     0     0   502   512  0.000000000E+00  0.000000000E+00  5.770756720E+02  5.770756720E+02  0.000000000E+00  0.00000E+00  9.000E+00
      21    -1     0     0   501   502  0.000000000E+00  0.000000000E+00 -1.345159672E+02  1.345159672E+02  0.000000000E+00  0.00000E+00  9.000E+00
      25     1     1     2     0     0  3.292065683E+01  7.809854139E+01  1.111417596E+01  1.514320862E+02  1.250000000E+02  0.00000E+00  9.000E+00
      25     1     1     2     0     0 -1.228314358E+02 -1.411431896E+02  1.884690304E+02  2.935209311E+02  1.250000000E+02  0.00000E+00  9.000E+00
      21     1     1     2   501   512  8.991077893E+01  6.304464825E+01  2.429764985E+02  2.666386218E+02  3.814697266E-06  0.00000E+00  9.000E+00
#rwgt            1           1   4.0766897331871645E-002           5      257594           0
</event>
<event>
      5   9999  3.79277E-02  5.00031E+01 -1.00000E+00  1.39074E-01
      21    -1     0     0   511   501  0.000000000E+00  0.000000000E+00  7.434562690E+01  7.434562690E+01  0.000000000E+00  0.00000E+00  9.000E+00
      21    -1     0     0   501   502  0.000000000E+00  0.000000000E+00 -1.204547538E+03  1.204547538E+03  0.000000000E+00  0.00000E+00  9.000E+00
      25     1     1     2     0     0  1.775660142E+02  9.674867193E+01 -8.653757601E+02  8.974353465E+02  1.250000000E+02  0.00000E+00  9.000E+00
      25     1     1     2     0     0 -1.716293874E+02 -4.709922833E+01 -2.451646548E+02  3.277280761E+02  1.250000000E+02  0.00000E+00  9.000E+00
      21     1     1     2   511   502 -5.936626780E+00 -4.964944360E+01 -1.966149639E+01  5.372974249E+01  7.907449699E-07  0.00000E+00  9.000E+00
#rwgt            1           1   4.3091672334732427E-002           5      257697           0
</event>
<event>
      5   9999  3.79277E-02  3.48065E+02 -1.00000E+00  1.03537E-01
       1    -1     0     0   502     0  0.000000000E+00  0.000000000E+00  3.395395724E+03  3.395395724E+03  0.000000000E+00  0.00000E+00  9.000E+00
      21    -1     0     0   501   502  0.000000000E+00  0.000000000E+00 -7.341969048E+01  7.341969048E+01  0.000000000E+00  0.00000E+00  9.000E+00
      25     1     1     2     0     0  1.441756040E+02 -8.222962987E+01  1.889746227E+02  2.808642463E+02  1.250000000E+02  0.00000E+00  9.000E+00
      25     1     1     2     0     0  1.799649716E+02 -4.458604421E+01  1.624357923E+03  1.639676483E+03  1.250000000E+02  0.00000E+00  9.000E+00
       1     1     1     2   501     0 -3.241405757E+02  1.268156741E+02  1.508643488E+03  1.548274685E+03  0.000000000E+00  0.00000E+00  9.000E+00
#rwgt            1           1   6.1598398946517738E-002           5      258010           0
</event>
<event>
      5   9999  3.79277E-02  2.53932E+01 -1.00000E+00  1.58245E-01
      21    -1     0     0   502   501  0.000000000E+00  0.000000000E+00  1.770696583E+02  1.770696583E+02  0.000000000E+00  0.00000E+00  9.000E+00
      21    -1     0     0   511   502  0.000000000E+00  0.000000000E+00 -4.433793943E+02  4.433793943E+02  0.000000000E+00  0.00000E+00  9.000E+00
      25     1     1     2     0     0  1.170620805E+02  9.333205448E+01  4.598647046E+01  2.003850257E+02  1.250000000E+02  0.00000E+00  9.000E+00
      25     1     1     2     0     0 -1.261741544E+02 -6.963009876E+01 -1.184294576E+02  2.245413199E+02  1.250000000E+02  0.00000E+00  9.000E+00
      21     1     1     2   511   501  9.112073995E+00 -2.370195572E+01 -1.938667490E+02  1.955227070E+02  3.814697266E-06  0.00000E+00  9.000E+00
#rwgt            1           1   1.5152217212654613E-002           5      258070           0
</event>
<event>
      5   9999  3.79277E-02  9.80017E+01 -1.00000E+00  1.24223E-01
      21    -1     0     0   502   501  0.000000000E+00  0.000000000E+00  1.901041501E+03  1.901041501E+03  0.000000000E+00  0.00000E+00  9.000E+00
      21    -1     0     0   512   502  0.000000000E+00  0.000000000E+00 -1.247651072E+02  1.247651072E+02  0.000000000E+00  0.00000E+00  9.000E+00
      25     1     1     2     0     0 -3.256912040E+02 -1.185407351E+02  1.101272583E+03  1.161272133E+03  1.250000000E+02  0.00000E+00  9.000E+00
      25     1     1     2     0     0  3.241113012E+02  2.055174528E+01  6.826563465E+02  7.662344271E+02  1.250000000E+02  0.00000E+00  9.000E+00
      21     1     1     2   512   501  1.579902827E+00  9.798898978E+01 -7.652534975E+00  9.830004833E+01  1.996533182E-06  0.00000E+00  9.000E+00
#rwgt            1           1   4.7054508175120732E-002           5      258182           0
</event>
<event>
      5   9999  3.79277E-02  3.03294E+01 -1.00000E+00  1.52711E-01
      21    -1     0     0   502   501  0.000000000E+00  0.000000000E+00  2.947862319E+02  2.947862319E+02  0.000000000E+00  0.00000E+00  9.000E+00
      21    -1     0     0   511   502  0.000000000E+00  0.000000000E+00 -1.400059252E+02  1.400059252E+02  0.000000000E+00  0.00000E+00  9.000E+00
      25     1     1     2     0     0  3.953095725E+01 -2.030391609E+01  2.259988463E+02  2.620599628E+02  1.250000000E+02  0.00000E+00  9.000E+00
      25     1     1     2     0     0 -2.044443442E+01 -3.266739506E+00 -6.181983165E+01  1.409799208E+02  1.250000000E+02  0.00000E+00  9.000E+00
      21     1     1     2   511   501 -1.908652284E+01  2.357065560E+01 -9.398707970E+00  3.175227347E+01  5.462855929E-07  0.00000E+00  9.000E+00
#rwgt            1           1   3.3822064173695612E-002           5      258328           0
</event>
<event>
      5   9999  3.79277E-02  3.86138E+01 -1.00000E+00  1.45797E-01
      21    -1     0     0   502   501  0.000000000E+00  0.000000000E+00  1.936137955E+02  1.936137955E+02  0.000000000E+00  0.00000E+00  9.000E+00
      21    -1     0     0   501   512  0.000000000E+00  0.000000000E+00 -3.160430851E+02  3.160430851E+02  0.000000000E+00  0.00000E+00  9.000E+00
      25     1     1     2     0     0  1.523909618E+02  2.868255211E+01 -1.941556340E+01  2.001191099E+02  1.250000000E+02  0.00000E+00  9.000E+00
      25     1     1     2     0     0 -1.190221185E+02 -4.811299905E+01  2.029219421E+01  1.803271985E+02  1.250000000E+02  0.00000E+00  9.000E+00
      21     1     1     2   502   512 -3.336884330E+01  1.943044695E+01 -1.233059204E+02  1.292105722E+02  1.348699152E-06  0.00000E+00  9.000E+00
#rwgt            1           1   4.0315998677919677E-002           5      258468           0
</event>
<event>
      5   9999  3.79277E-02  9.82926E+01 -1.00000E+00  1.24165E-01
      21    -1     0     0   511   501  0.000000000E+00  0.000000000E+00  1.603517255E+03  1.603517255E+03  0.000000000E+00  0.00000E+00  9.000E+00
      21    -1     0     0   501   502  0.000000000E+00  0.000000000E+00 -6.166459641E+01  6.166459641E+01  0.000000000E+00  0.00000E+00  9.000E+00
      25     1     1     2     0     0  7.495280982E+01  8.660282294E+01  6.313923867E+02  6.537578440E+02  1.250000000E+02  0.00000E+00  9.000E+00
      25     1     1     2     0     0 -1.600734067E+01 -7.946213777E+00  3.578588312E+01  1.312440730E+02  1.250000000E+02  0.00000E+00  9.000E+00
      21     1     1     2   511   502 -5.894546915E+01 -7.865660916E+01  8.746743886E+02  8.801799342E+02  1.525878906E-05  0.00000E+00  9.000E+00
#rwgt            1           1   4.7771744035124478E-002           5      258573           0
</event>
<event>
      5   9999  3.79277E-02  8.43367E+01 -1.00000E+00  1.27250E-01
      21    -1     0     0   512   501  0.000000000E+00  0.000000000E+00  8.660574082E+02  8.660574082E+02  0.000000000E+00  0.00000E+00  9.000E+00
      21    -1     0     0   501   502  0.000000000E+00  0.000000000E+00 -9.488316944E+01  9.488316944E+01  0.000000000E+00  0.00000E+00  9.000E+00
      25     1     1     2     0     0  4.292570402E+01  1.516662427E+02  1.752032211E+02  2.667703768E+02  1.250000000E+02  0.00000E+00  9.000E+00
      25     1     1     2     0     0 -5.050170051E+01 -2.356619592E+02  4.476219770E+02  5.235240349E+02  1.250000000E+02  0.00000E+00  9.000E+00
      21     1     1     2   512   502  7.575996499E+00  8.399571646E+01  1.483490407E+02  1.706461660E+02  0.000000000E+00  0.00000E+00  9.000E+00
#rwgt            1           1   3.3977570701920395E-002           5      258691           0
</event>
<event>
      5   9999  3.79277E-02  1.48717E+01 -1.00000E+00  1.77736E-01
      21    -1     0     0   502   501  0.000000000E+00  0.000000000E+00  1.128189397E+03  1.128189397E+03  0.000000000E+00  0.00000E+00  9.000E+00
      21    -1     0     0   511   502  0.000000000E+00  0.000000000E+00 -6.583516783E+01  6.583516783E+01  0.000000000E+00  0.00000E+00  9.000E+00
      25     1     1     2     0     0  4.612066705E+01  1.096626448E+02  1.969148862E+02  2.618272025E+02  1.250000000E+02  0.00000E+00  9.000E+00
      25     1     1     2     0     0 -3.650801216E+01 -9.831526369E+01  8.892653731E+02  9.041109610E+02  1.250000000E+02  0.00000E+00  9.000E+00
      21     1     1     2   511   501 -9.612654892E+00 -1.134738111E+01 -2.382603043E+01  2.808640095E+01  4.768371582E-07  0.00000E+00  9.000E+00
#rwgt            1           1   3.0541945435633107E-002           5      258792           0
</event>
<event>
      5   9999 -3.79277E-02  2.39758E+02 -1.00000E+00  1.08855E-01
       1    -1     0     0   502     0  0.000000000E+00  0.000000000E+00  1.229334965E+03  1.229334965E+03  0.000000000E+00  0.00000E+00  9.000E+00
      21    -1     0     0   501   502  0.000000000E+00  0.000000000E+00 -4.205800112E+02  4.205800112E+02  0.000000000E+00  0.00000E+00  9.000E+00
      25     1     1     2     0     0 -8.736693103E+01  3.613383882E+02  4.949237164E+02  6.314846763E+02  1.250000000E+02  0.00000E+00  9.000E+00
      25     1     1     2     0     0 -1.439151606E+02 -4.245246122E+02 -1.561244228E+02  4.908488110E+02  1.250000000E+02  0.00000E+00  9.000E+00
       1     1     1     2   501     0  2.312820917E+02  6.318622403E+01  4.699556606E+02  5.275814892E+02  9.344061824E-06  0.00000E+00  9.000E+00
#rwgt            1           1 -0.55847991769512351                5      258983           0
</event>
<event>
      5   9999 -3.79277E-02  4.18870E+01 -1.00000E+00  1.43609E-01
      21    -1     0     0   511   501  0.000000000E+00  0.000000000E+00  5.862680285E+02  5.862680285E+02  0.000000000E+00  0.00000E+00  9.000E+00
      21    -1     0     0   501   502  0.000000000E+00  0.000000000E+00 -5.179983091E+02  5.179983091E+02  0.000000000E+00  0.00000E+00  9.000E+00
      25     1     1     2     0     0 -2.156480131E+02 -4.819288481E+01 -1.047001618E+02  2.746156288E+02  1.250000000E+02  0.00000E+00  9.000E+00
      25     1     1     2     0     0  1.753055167E+02  5.946255645E+01 -2.892949671E+02  3.654919941E+02  1.250000000E+02  0.00000E+00  9.000E+00
      21     1     1     2   511   502  4.034249637E+01 -1.126967164E+01  4.622648482E+02  4.641587147E+02  7.629394531E-06  0.00000E+00  9.000E+00
#rwgt            1           1 -0.21381145719226444                5      259190           0
</event>
<event>
      5   9999  3.79277E-02  4.46518E+01 -1.00000E+00  1.41938E-01
      21    -1     0     0   512   501  0.000000000E+00  0.000000000E+00  7.876356732E+02  7.876356732E+02  0.000000000E+00  0.00000E+00  9.000E+00
      21    -1     0     0   501   502  0.000000000E+00  0.000000000E+00 -1.072248861E+02  1.072248861E+02  0.000000000E+00  0.00000E+00  9.000E+00
      25     1     1     2     0     0 -8.991047915E+01  1.620662033E+02  4.667969395E+02  5.175651951E+02  1.250000000E+02  0.00000E+00  9.000E+00
      25     1     1     2     0     0  4.536343809E+01 -1.651226181E+02  6.444744895E+01  2.215892465E+02  1.250000000E+02  0.00000E+00  9.000E+00
      21     1     1     2   512   502  4.454704106E+01  3.056414735E+00  1.491663987E+02  1.557061175E+02  1.907348633E-06  0.00000E+00  9.000E+00
#rwgt            1           1   5.1887729493359930E-003           5      259304           0
</event>
<event>
      5   9999  3.79277E-02  1.29282E+01 -1.00000E+00  1.83689E-01
      21    -1     0     0   502   511  0.000000000E+00  0.000000000E+00  7.689571437E+01  7.689571437E+01  0.000000000E+00  0.00000E+00  9.000E+00
      21    -1     0     0   501   502  0.000000000E+00  0.000000000E+00 -1.040118046E+03  1.040118046E+03  0.000000000E+00  0.00000E+00  9.000E+00
      25     1     1     2     0     0  1.749258351E+02  1.464723313E+02 -6.445930571E+02  6.951103515E+02  1.250000000E+02  0.00000E+00  9.000E+00
      25     1     1     2     0     0 -1.765506281E+02 -1.336466549E+02 -3.201978210E+02  4.088804193E+02  1.250000000E+02  0.00000E+00  9.000E+00
      21     1     1     2   501   511  1.624793014E+00 -1.282567638E+01  1.568546204E+00  1.302298983E+01  2.289159819E-07  0.00000E+00  9.000E+00
#rwgt            1           1  0.12036367725737855                5      259420           0
</event>
<event>
      5   9999  3.79277E-02  4.10444E+00 -1.00000E+00  2.60860E-01
      21    -1     0     0   502   501  0.000000000E+00  0.000000000E+00  7.942985128E+01  7.942985128E+01  0.000000000E+00  0.00000E+00  9.000E+00
       2    -1     0     0   501     0  0.000000000E+00  0.000000000E+00 -1.903406103E+03  1.903406103E+03  0.000000000E+00  0.00000E+00  9.000E+00
      25     1     1     2     0     0 -9.438369309E+01  9.637637670E+01 -3.472587820E+02  3.929508229E+02  1.250000000E+02  0.00000E+00  9.000E+00
      25     1     1     2     0     0  9.608166662E+01 -9.263962722E+01 -9.116717450E+01  2.043287569E+02  1.250000000E+02  0.00000E+00  9.000E+00
       2     1     1     2   502     0 -1.697973528E+00 -3.736749487E+00 -1.385550295E+03  1.385556374E+03  2.157918644E-05  0.00000E+00  9.000E+00
#rwgt            1           1   3.5343923627231821E-002           5      259632           0
</event>
<event>
      5   9999  3.79277E-02  4.37186E+01 -1.00000E+00  1.42486E-01
      21    -1     0     0   502   501  0.000000000E+00  0.000000000E+00  7.398032849E+02  7.398032849E+02  0.000000000E+00  0.00000E+00  9.000E+00
      21    -1     0     0   511   502  0.000000000E+00  0.000000000E+00 -1.626528135E+02  1.626528135E+02  0.000000000E+00  0.00000E+00  9.000E+00
      25     1     1     2     0     0  8.803370108E+01  1.678055888E+02  6.035294928E+02  6.448112103E+02  1.250000000E+02  0.00000E+00  9.000E+00
      25     1     1     2     0     0 -1.075918313E+02 -1.287058103E+02 -3.749041502E+01  2.125363945E+02  1.250000000E+02  0.00000E+00  9.000E+00
      21     1     1     2   511   501  1.955813017E+01 -3.909977846E+01  1.111139358E+01  4.510849365E+01  2.920019320E-07  0.00000E+00  9.000E+00
#rwgt            1           1   4.8238936130214183E-002           5      260048           0
</event>
<event>
      5   9999  3.79277E-02  3.17360E+01 -1.00000E+00  1.51362E-01
      21    -1     0     0   502   501  0.000000000E+00  0.000000000E+00  8.295789650E+01  8.295789650E+01  0.000000000E+00  0.00000E+00  9.000E+00
      21    -1     0     0   501   512  0.000000000E+00  0.000000000E+00 -8.634458991E+02  8.634458991E+02  0.000000000E+00  0.00000E+00  9.000E+00
      25     1     1     2     0     0  8.286223149E+01  6.175686760E+01 -5.841282987E+02  6.062267971E+02  1.250000000E+02  0.00000E+00  9.000E+00
      25     1     1     2     0     0 -1.099194605E+02 -4.517137200E+01 -3.533879946E+01  1.760584318E+02  1.250000000E+02  0.00000E+00  9.000E+00
      21     1     1     2   502   512  2.705722900E+01 -1.658549560E+01 -1.610209044E+02  1.641185668E+02  0.000000000E+00  0.00000E+00  9.000E+00
#rwgt            1           1   4.8696595435742257E-002           5      260281           0
</event>
<event>
      5   9999  3.79277E-02  3.09742E+01 -1.00000E+00  1.52082E-01
      21    -1     0     0   502   511  0.000000000E+00  0.000000000E+00  4.451031671E+02  4.451031671E+02  0.000000000E+00  0.00000E+00  9.000E+00
      21    -1     0     0   501   502  0.000000000E+00  0.000000000E+00 -1.599800213E+02  1.599800213E+02  0.000000000E+00  0.00000E+00  9.000E+00
      25     1     1     2     0     0  3.165060444E+01 -1.046122297E+02 -8.559997172E+01  1.868096211E+02  1.250000000E+02  0.00000E+00  9.000E+00
      25     1     1     2     0     0 -4.996429003E+01  7.963208647E+01  2.611278426E+02  3.043853637E+02  1.250000000E+02  0.00000E+00  9.000E+00
      21     1     1     2   501   511  1.831368559E+01  2.498014323E+01  1.095952750E+02  1.138882037E+02  1.907348633E-06  0.00000E+00  9.000E+00
#rwgt            1           1   4.7657771011278868E-002           5      260478           0
</event>
<event>
      5   9999  3.79277E-02  8.54228E+01 -1.00000E+00  1.26986E-01
      21    -1     0     0   502   512  0.000000000E+00  0.000000000E+00  7.939112277E+01  7.939112277E+01  0.000000000E+00  0.00000E+00  9.000E+00
      21    -1     0     0   501   502  0.000000000E+00  0.000000000E+00 -8.289351664E+02  8.289351664E+02  0.000000000E+00  0.00000E+00  9.000E+00
      25     1     1     2     0     0 -3.345488014E+01  1.697701747E+02 -2.840225329E+02  3.552955677E+02  1.250000000E+02  0.00000E+00  9.000E+00
      25     1     1     2     0     0  1.079677315E+02 -1.279983754E+02 -3.696352131E+02  4.246125362E+02  1.250000000E+02  0.00000E+00  9.000E+00
      21     1     1     2   501   512 -7.451285140E+01 -4.177179930E+01 -9.588629763E+01  1.284181853E+02  2.697398305E-06  0.00000E+00  9.000E+00
#rwgt            1           1   3.7124966629202928E-002           5      260595           0
</event>
<event>
      5   9999  3.79277E-02  4.36879E+00 -1.00000E+00  2.54760E-01
      21    -1     0     0   502   501  0.000000000E+00  0.000000000E+00  1.120670499E+03  1.120670499E+03  0.000000000E+00  0.00000E+00  9.000E+00
      21    -1     0     0   511   502  0.000000000E+00  0.000000000E+00 -4.175119560E+01  4.175119560E+01  0.000000000E+00  0.00000E+00  9.000E+00
      25     1     1     2     0     0 -1.420482675E+02 -5.995530206E+01  3.399959987E+02  3.936935708E+02  1.250000000E+02  0.00000E+00  9.000E+00
      25     1     1     2     0     0  1.432456525E+02  5.575380003E+01  7.381690818E+02  7.642947053E+02  1.250000000E+02  0.00000E+00  9.000E+00
      21     1     1     2   511   501 -1.197384992E+00  4.201502026E+00  7.542232369E-01  4.433418860E+00  6.909384203E-08  0.00000E+00  9.000E+00
#rwgt            1           1   2.7809576727966558E-002           5      260731           0
</event>
<event>
      5   9999  3.79277E-02  5.47068E+01 -1.00000E+00  1.36882E-01
      21    -1     0     0   502   501  0.000000000E+00  0.000000000E+00  6.990399707E+01  6.990399707E+01  0.000000000E+00  0.00000E+00  9.000E+00
       3    -1     0     0   501     0  0.000000000E+00  0.000000000E+00 -6.479719073E+02  6.479719073E+02  0.000000000E+00  0.00000E+00  9.000E+00
      25     1     1     2     0     0 -8.498219318E+00 -9.717076861E+01 -3.978216000E+02  4.282539007E+02  1.250000000E+02  0.00000E+00  9.000E+00
      25     1     1     2     0     0  5.920356333E+01  7.663285929E+01 -8.433821584E+01  1.792082355E+02  1.250000000E+02  0.00000E+00  9.000E+00
       3     1     1     2   502     0 -5.070534401E+01  2.053790932E+01 -9.590809437E+01  1.104137681E+02  1.907348633E-06  0.00000E+00  9.000E+00
#rwgt            1           1   4.5138890570052055E-002           5      261181           0
</event>
<event>
      5   9999  3.79277E-02  6.45602E+01 -1.00000E+00  1.33025E-01
      21    -1     0     0   502   501  0.000000000E+00  0.000000000E+00  6.056263850E+01  6.056263850E+01  0.000000000E+00  0.00000E+00  9.000E+00
      21    -1     0     0   511   502  0.000000000E+00  0.000000000E+00 -1.268009570E+03  1.268009570E+03  0.000000000E+00  0.00000E+00  9.000E+00
      25     1     1     2     0     0  2.071491725E+01  7.594755110E+01 -8.738929405E+02  8.862905899E+02  1.250000000E+02  0.00000E+00  9.000E+00
      25     1     1     2     0     0  4.374277030E+01 -7.958497191E+01 -6.767645889E+01  1.686780981E+02  1.250000000E+02  0.00000E+00  9.000E+00
      21     1     1     2   511   501 -6.445768755E+01  3.637420812E+00 -2.658775318E+02  2.736035202E+02  5.394796609E-06  0.00000E+00  9.000E+00
#rwgt            1           1   4.6016968827283247E-002           5      261330           0
</event>
<event>
      5   9999  3.79277E-02  7.47820E+01 -1.00000E+00  1.29784E-01
      21    -1     0     0   502   501  0.000000000E+00  0.000000000E+00  4.505576326E+02  4.505576326E+02  0.000000000E+00  0.00000E+00  9.000E+00
      21    -1     0     0   501   512  0.000000000E+00  0.000000000E+00 -5.514551561E+02  5.514551561E+02  0.000000000E+00  0.00000E+00  9.000E+00
      25     1     1     2     0     0  1.322313245E+02 -5.848882551E+00  1.511277956E+02  2.366092628E+02  1.250000000E+02  0.00000E+00  9.000E+00
      25     1     1     2     0     0 -2.033033816E+02 -1.741298586E+01  1.971496911E+02  3.100459284E+02  1.250000000E+02  0.00000E+00  9.000E+00
      21     1     1     2   502   512  7.107205713E+01  2.326186841E+01 -4.491750102E+02  4.553575975E+02  0.000000000E+00  0.00000E+00  9.000E+00
#rwgt            1           1   3.5457484528011125E-002           5      261402           0
</event>
<event>
      5   9999  3.79277E-02  5.26557E+01 -1.00000E+00  1.37805E-01
      21    -1     0     0   502   511  0.000000000E+00  0.000000000E+00  6.213474547E+02  6.213474547E+02  0.000000000E+00  0.00000E+00  9.000E+00
      21    -1     0     0   501   502  0.000000000E+00  0.000000000E+00 -1.250585249E+02  1.250585249E+02  0.000000000E+00  0.00000E+00  9.000E+00
      25     1     1     2     0     0 -1.168517741E+02  5.996877783E+00  2.448346379E+02  2.987629488E+02  1.250000000E+02  0.00000E+00  9.000E+00
      25     1     1     2     0     0  8.706669604E+01  3.742513547E+01 -3.136071841E+01  1.599679499E+02  1.250000000E+02  0.00000E+00  9.000E+00
      21     1     1     2   501   511  2.978507804E+01 -4.342201325E+01  2.828150103E+02  2.876750809E+02  5.394796609E-06  0.00000E+00  9.000E+00
#rwgt            1           1   4.0649279410626911E-002           5      261567           0
</event>
<event>
      5   9999  3.79277E-02  1.48600E+01 -1.00000E+00  1.77768E-01
      21    -1     0     0   502   501  0.000000000E+00  0.000000000E+00  8.753766859E+02  8.753766859E+02  0.000000000E+00  0.00000E+00  9.000E+00
      -2    -1     0     0     0   502  0.000000000E+00  0.000000000E+00 -4.429116864E+02  4.429116864E+02  0.000000000E+00  0.00000E+00  9.000E+00
      25     1     1     2     0     0 -1.823449151E+02  1.531115463E+02  6.111881226E+02  6.677340301E+02  1.250000000E+02  0.00000E+00  9.000E+00
      25     1     1     2     0     0  1.694266623E+02 -1.457672253E+02  1.662149097E+02  3.052963709E+02  1.250000000E+02  0.00000E+00  9.000E+00
      -2     1     1     2     0   501  1.291825281E+01 -7.344320980E+00 -3.449380328E+02  3.452579714E+02  5.394796609E-06  0.00000E+00  9.000E+00
#rwgt            1           1   3.8362479814042179E-002           5      261670           0
</event>
<event>
      5   9999  3.79277E-02  3.86233E+01 -1.00000E+00  1.45790E-01
      21    -1     0     0   502   501  0.000000000E+00  0.000000000E+00  2.689319553E+02  2.689319553E+02  0.000000000E+00  0.00000E+00  9.000E+00
      21    -1     0     0   501   511  0.000000000E+00  0.000000000E+00 -1.565903898E+02  1.565903898E+02  0.000000000E+00  0.00000E+00  9.000E+00
      25     1     1     2     0     0  1.089900109E+02 -5.986318646E+01  9.507401862E+01  2.003159818E+02  1.250000000E+02  0.00000E+00  9.000E+00
      25     1     1     2     0     0 -1.334816255E+02  2.999814746E+01  2.050532673E+01  1.864475841E+02  1.250000000E+02  0.00000E+00  9.000E+00
      21     1     1     2   502   511  2.449161463E+01  2.986503900E+01 -3.237779804E+00  3.875877913E+01  4.986882368E-07  0.00000E+00  9.000E+00
#rwgt            1           1   3.4650499027863553E-002           5      261879           0
</event>
<event>
      5   9999  3.79277E-02  3.35531E+01 -1.00000E+00  1.49738E-01
      21    -1     0     0   502   512  0.000000000E+00  0.000000000E+00  5.291000601E+02  5.291000601E+02  0.000000000E+00  0.00000E+00  9.000E+00
      21    -1     0     0   501   502  0.000000000E+00  0.000000000E+00 -8.543760854E+01  8.543760854E+01  0.000000000E+00  0.00000E+00  9.000E+00
      25     1     1     2     0     0  5.989736406E+01  1.095198589E+02  8.624107228E+01  1.965828483E+02  1.250000000E+02  0.00000E+00  9.000E+00
      25     1     1     2     0     0 -7.967335646E+01 -8.241417645E+01  2.274510007E+02  2.837232770E+02  1.250000000E+02  0.00000E+00  9.000E+00
      21     1     1     2   501   512  1.977599240E+01 -2.710568245E+01  1.299703786E+02  1.342315433E+02  1.907348633E-06  0.00000E+00  9.000E+00
#rwgt            1           1   3.9030479540518886E-002           5      262054           0
</event>
<event>
      5   9999  3.79277E-02  2.84032E+01 -1.00000E+00  1.54708E-01
      21    -1     0     0   502   501  0.000000000E+00  0.000000000E+00  5.064358398E+02  5.064358398E+02  0.000000000E+00  0.00000E+00  9.000E+00
       2    -1     0     0   501     0  0.000000000E+00  0.000000000E+00 -5.378868571E+02  5.378868571E+02  0.000000000E+00  0.00000E+00  9.000E+00
      25     1     1     2     0     0  1.977072608E+01  2.271628731E+01  4.022118901E+02  4.222633253E+02  1.250000000E+02  0.00000E+00  9.000E+00
      25     1     1     2     0     0 -2.720409920E+01 -5.012950296E+01  4.344836748E+01  1.441034029E+02  1.250000000E+02  0.00000E+00  9.000E+00
       2     1     1     2   502     0  7.433373126E+00  2.741321566E+01 -4.771112749E+02  4.779559688E+02  5.394796609E-06  0.00000E+00  9.000E+00
#rwgt            1           1   4.3304379854105020E-002           5      262260           0
</event>
<event>
      5   9999  3.79277E-02  9.23035E+00 -1.00000E+00  1.99866E-01
      21    -1     0     0   502   501  0.000000000E+00  0.000000000E+00  1.607521877E+02  1.607521877E+02  0.000000000E+00  0.00000E+00  9.000E+00
      21    -1     0     0   501   511  0.000000000E+00  0.000000000E+00 -5.577277239E+02  5.577277239E+02  0.000000000E+00  0.00000E+00  9.000E+00
      25     1     1     2     0     0  1.850724923E+02 -1.029566607E+02 -1.158798267E+02  2.718548062E+02  1.250000000E+02  0.00000E+00  9.000E+00
      25     1     1     2     0     0 -1.916743331E+02  1.094076290E+02 -1.119853826E+02  2.772630613E+02  1.250000000E+02  0.00000E+00  9.000E+00
      21     1     1     2   502   511  6.601840827E+00 -6.450968348E+00 -1.691103269E+02  1.693620441E+02  2.697398305E-06  0.00000E+00  9.000E+00
#rwgt            1           1   6.2206060277509009E-002           5      262381           0
</event>
<event>
      5   9999  3.79277E-02  8.58410E+00 -1.00000E+00  2.03748E-01
      21    -1     0     0   502   501  0.000000000E+00  0.000000000E+00  1.292835486E+02  1.292835486E+02  0.000000000E+00  0.00000E+00  9.000E+00
      21    -1     0     0   501   512  0.000000000E+00  0.000000000E+00 -3.592336736E+02  3.592336736E+02  0.000000000E+00  0.00000E+00  9.000E+00
      25     1     1     2     0     0 -1.537618569E+02  9.695761251E+00 -5.616928918E+01  2.061957940E+02  1.250000000E+02  0.00000E+00  9.000E+00
      25     1     1     2     0     0  1.452593682E+02 -1.087664649E+01 -1.167848273E+02  2.246826237E+02  1.250000000E+02  0.00000E+00  9.000E+00
      21     1     1     2   502   512  8.502488692E+00  1.180885240E+00 -5.699600853E+01  5.763880457E+01  9.536743164E-07  0.00000E+00  9.000E+00
#rwgt            1           1   4.1074613221455676E-002           5      262539           0
</event>
<event>
      5   9999  3.79277E-02  1.55261E+01 -1.00000E+00  1.75985E-01
      21    -1     0     0   502   511  0.000000000E+00  0.000000000E+00  7.434420941E+02  7.434420941E+02  0.000000000E+00  0.00000E+00  9.000E+00
      21    -1     0     0   501   502  0.000000000E+00  0.000000000E+00 -1.544631921E+02  1.544631921E+02  0.000000000E+00  0.00000E+00  9.000E+00
      25     1     1     2     0     0  2.821698009E+02 -5.305644213E+01  1.298993566E+02  3.390186211E+02  1.250000000E+02  0.00000E+00  9.000E+00
      25     1     1     2     0     0 -2.731404773E+02  4.042585972E+01  4.399765416E+02  5.342699015E+02  1.250000000E+02  0.00000E+00  9.000E+00
      21     1     1     2   501   511 -9.029323615E+00  1.263058242E+01  1.910300382E+01  2.461676364E+01  4.129530925E-07  0.00000E+00  9.000E+00
#rwgt            1           1   4.2110006955999098E-002           5      262816           0
</event>
<event>
      5   9999  3.79277E-02  1.03969E+02 -1.00000E+00  1.23072E-01
      21    -1     0     0   502   501  0.000000000E+00  0.000000000E+00  2.672178453E+02  2.672178453E+02  0.000000000E+00  0.00000E+00  9.000E+00
       1    -1     0     0   501     0  0.000000000E+00  0.000000000E+00 -4.124861753E+02  4.124861753E+02  0.000000000E+00  0.00000E+00  9.000E+00
      25     1     1     2     0     0  4.026065332E+01  1.145022019E+02 -1.199676218E+02  2.115393692E+02  1.250000000E+02  0.00000E+00  9.000E+00
      25     1     1     2     0     0  4.401368291E+01 -5.361457961E+01  1.848630901E+02  2.336901571E+02  1.250000000E+02  0.00000E+00  9.000E+00
       1     1     1     2   502     0 -8.427433623E+01 -6.088762232E+01 -2.101637984E+02  2.344744942E+02  2.697398305E-06  0.00000E+00  9.000E+00
#rwgt            1           1   4.0216732550224926E-002           5      263002           0
</event>
<event>
      5   9999  3.79277E-02  2.02931E+01 -1.00000E+00  1.65849E-01
      21    -1     0     0   502   501  0.000000000E+00  0.000000000E+00  1.755194315E+02  1.755194315E+02  0.000000000E+00  0.00000E+00  9.000E+00
      21    -1     0     0   501   511  0.000000000E+00  0.000000000E+00 -7.044875246E+02  7.044875246E+02  0.000000000E+00  0.00000E+00  9.000E+00
      25     1     1     2     0     0 -1.266302448E+02 -5.667463391E+00  1.101118441E+02  2.093250039E+02  1.250000000E+02  0.00000E+00  9.000E+00
      25     1     1     2     0     0  1.255743447E+02 -1.459813681E+01 -6.088261412E+02  6.342525458E+02  1.250000000E+02  0.00000E+00  9.000E+00
      21     1     1     2   502   511  1.055900042E+00  2.026560020E+01 -3.025379611E+01  3.642940646E+01  4.768371582E-07  0.00000E+00  9.000E+00
#rwgt            1           1   4.4594533420964477E-002           5      263069           0
</event>
<event>
      5   9999  3.79277E-02  1.16800E+01 -1.00000E+00  1.88271E-01
      21    -1     0     0   502   512  0.000000000E+00  0.000000000E+00  3.511982421E+01  3.511982421E+01  0.000000000E+00  0.00000E+00  9.000E+00
      21    -1     0     0   501   502  0.000000000E+00  0.000000000E+00 -1.744332199E+03  1.744332199E+03  0.000000000E+00  0.00000E+00  9.000E+00
      25     1     1     2     0     0 -1.453158241E+02  5.288304779E+01 -9.461467732E+02  9.668154022E+02  1.250000000E+02  0.00000E+00  9.000E+00
      25     1     1     2     0     0  1.382430920E+02 -6.217815153E+01 -7.728294645E+02  7.974131026E+02  1.250000000E+02  0.00000E+00  9.000E+00
      21     1     1     2   501   512  7.072732095E+00  9.295103737E+00  9.763862929E+00  1.522351839E+01  6.529361695E-07  0.00000E+00  9.000E+00
#rwgt            1           1   2.9225038718038110E-002           5      263411           0
</event>
<event>
      5   9999  3.79277E-02  6.74345E+01 -1.00000E+00  1.32047E-01
      21    -1     0     0   511   501  0.000000000E+00  0.000000000E+00  8.554313182E+02  8.554313182E+02  0.000000000E+00  0.00000E+00  9.000E+00
      21    -1     0     0   501   502  0.000000000E+00  0.000000000E+00 -1.637829104E+02  1.637829104E+02  0.000000000E+00  0.00000E+00  9.000E+00
      25     1     1     2     0     0 -1.749086567E+02 -2.235588348E+01  5.980603150E+00  2.162257879E+02  1.250000000E+02  0.00000E+00  9.000E+00
      25     1     1     2     0     0  1.727826183E+02 -4.504514151E+01  1.535594433E+02  2.666240810E+02  1.250000000E+02  0.00000E+00  9.000E+00
      21     1     1     2   511   502  2.126038480E+00  6.740102499E+01  5.321083614E+02  5.363643598E+02  0.000000000E+00  0.00000E+00  9.000E+00
#rwgt            1           1   3.6191975806275978E-002           5      263753           0
</event>
<event>
      5   9999  3.79277E-02  6.19490E+01 -1.00000E+00  1.33966E-01
       2    -1     0     0   502     0  0.000000000E+00  0.000000000E+00  5.905474608E+01  5.905474608E+01  0.000000000E+00  0.00000E+00  9.000E+00
      21    -1     0     0   501   502  0.000000000E+00  0.000000000E+00 -2.491294518E+03  2.491294518E+03  0.000000000E+00  0.00000E+00  9.000E+00
      25     1     1     2     0     0 -3.318111611E+01 -7.118940832E+01 -1.823532052E+03  1.829498036E+03  1.250000000E+02  0.00000E+00  9.000E+00
      25     1     1     2     0     0  7.705295840E+00  1.276575917E+02 -6.303530941E+02  6.552296204E+02  1.250000000E+02  0.00000E+00  9.000E+00
       2     1     1     2   501     0  2.547582027E+01 -5.646818341E+01  2.164537436E+01  6.562160762E+01  3.234066955E-06  0.00000E+00  9.000E+00
#rwgt            1           1   7.3518273324508415E-002           5      263912           0
</event>
<event>
      5   9999  3.79277E-02  5.76313E+00 -1.00000E+00  2.28223E-01
      21    -1     0     0   502   501  0.000000000E+00  0.000000000E+00  1.135388162E+02  1.135388162E+02  0.000000000E+00  0.00000E+00  9.000E+00
      21    -1     0     0   511   502  0.000000000E+00  0.000000000E+00 -8.093851049E+02  8.093851049E+02  0.000000000E+00  0.00000E+00  9.000E+00
      25     1     1     2     0     0 -4.654180347E+01  7.986273599E+01 -2.196852263E+01  1.570089553E+02  1.250000000E+02  0.00000E+00  9.000E+00
      25     1     1     2     0     0  4.924904307E+01 -8.495041886E+01 -9.130355665E+01  1.833122510E+02  1.250000000E+02  0.00000E+00  9.000E+00
      21     1     1     2   511   501 -2.707239598E+00  5.087682871E+00 -5.825742095E+02  5.826027147E+02  0.000000000E+00  0.00000E+00  9.000E+00
#rwgt            1           1   1.8549878373133596E-002           5      264012           0
</event>
<event>
      5   9999  3.79277E-02  4.27110E+01 -1.00000E+00  1.43096E-01
      21    -1     0     0   502   501  0.000000000E+00  0.000000000E+00  1.458639446E+02  1.458639446E+02  0.000000000E+00  0.00000E+00  9.000E+00
       2    -1     0     0   501     0  0.000000000E+00  0.000000000E+00 -1.274006911E+03  1.274006911E+03  0.000000000E+00  0.00000E+00  9.000E+00
      25     1     1     2     0     0  3.820598377E+00  4.192542435E+01 -4.151217366E+02  4.355724903E+02  1.250000000E+02  0.00000E+00  9.000E+00
      25     1     1     2     0     0 -3.572670756E+01 -1.353119490E+01  1.034612663E+02  1.666995036E+02  1.250000000E+02  0.00000E+00  9.000E+00
       2     1     1     2   502     0  3.190610918E+01 -2.839422945E+01 -8.164824959E+02  8.175988614E+02  1.078959322E-05  0.00000E+00  9.000E+00
#rwgt            1           1   3.2383589134460315E-002           5      264377           0
</event>
<event>
      5   9999 -3.79277E-02  6.16951E+01 -1.00000E+00  1.34060E-01
      21    -1     0     0   502   511  0.000000000E+00  0.000000000E+00  2.406685602E+02  2.406685602E+02  0.000000000E+00  0.00000E+00  9.000E+00
      21    -1     0     0   501   502  0.000000000E+00  0.000000000E+00 -1.259276183E+03  1.259276183E+03  0.000000000E+00  0.00000E+00  9.000E+00
      25     1     1     2     0     0 -6.146977777E+01  8.363221666E+01 -1.004790297E+02  1.910338102E+02  1.250000000E+02  0.00000E+00  9.000E+00
      25     1     1     2     0     0  1.206228973E+02 -1.011591172E+02 -1.099297448E+03  1.117525360E+03  1.250000000E+02  0.00000E+00  9.000E+00
      21     1     1     2   501   511 -5.915311952E+01  1.752690055E+01  1.811688547E+02  1.913855734E+02  2.697398305E-06  0.00000E+00  9.000E+00
#rwgt            1           1  -6.6409296690619221E-002           5      264532           0
</event>
<event>
      5   9999 -3.79277E-02  7.92004E+01 -1.00000E+00  1.28561E-01
      21    -1     0     0   502   501  0.000000000E+00  0.000000000E+00  2.427767484E+02  2.427767484E+02  0.000000000E+00  0.00000E+00  9.000E+00
       1    -1     0     0   501     0  0.000000000E+00  0.000000000E+00 -4.882058383E+02  4.882058383E+02  0.000000000E+00  0.00000E+00  9.000E+00
      25     1     1     2     0     0 -9.486837243E+01 -1.062192310E+02  1.050056524E+02  2.166419169E+02  1.250000000E+02  0.00000E+00  9.000E+00
      25     1     1     2     0     0  1.608443812E+02  6.240286989E+01 -7.204043449E+01  2.248996606E+02  1.250000000E+02  0.00000E+00  9.000E+00
       1     1     1     2   502     0 -6.597600872E+01  4.381636107E+01 -2.783943079E+02  2.894410093E+02  3.814697266E-06  0.00000E+00  9.000E+00
#rwgt            1           1  -5.5058268660580403E-002           5      264651           0
</event>
<event>
      5   9999  3.79277E-02  4.47103E+01 -1.00000E+00  1.41904E-01
      21    -1     0     0   502   511  0.000000000E+00  0.000000000E+00  7.245498485E+01  7.245498485E+01  0.000000000E+00  0.00000E+00  9.000E+00
      21    -1     0     0   501   502  0.000000000E+00  0.000000000E+00 -4.695862365E+03  4.695862365E+03  0.000000000E+00  0.00000E+00  9.000E+00
      25     1     1     2     0     0 -1.231227181E+02  9.657330586E+01 -2.850183041E+03  2.857210873E+03  1.250000000E+02  0.00000E+00  9.000E+00
      25     1     1     2     0     0  8.966889005E+01 -1.262355724E+02 -1.828903440E+03  1.839697997E+03  1.250000000E+02  0.00000E+00  9.000E+00
      21     1     1     2   501   511  3.345382805E+01  2.966226658E+01  5.567910056E+01  7.140847925E+01  5.722045898E-06  0.00000E+00  9.000E+00
#rwgt            1           1   7.3418459138492533E-004           5      264751           0
</event>
<event>
      5   9999  3.79277E-02  1.48567E+01 -1.00000E+00  1.77777E-01
      21    -1     0     0   502   512  0.000000000E+00  0.000000000E+00  5.226304888E+02  5.226304888E+02  0.000000000E+00  0.00000E+00  9.000E+00
      21    -1     0     0   501   502  0.000000000E+00  0.000000000E+00 -7.436193931E+01  7.436193931E+01  0.000000000E+00  0.00000E+00  9.000E+00
      25     1     1     2     0     0  6.443428516E+01 -1.315288173E+02  1.744014940E+02  2.597931639E+02  1.250000000E+02  0.00000E+00  9.000E+00
      25     1     1     2     0     0 -5.974858982E+01  1.174303651E+02  2.483576790E+02  3.076789258E+02  1.250000000E+02  0.00000E+00  9.000E+00
      21     1     1     2   501   512 -4.685695339E+00  1.409845219E+01  2.550937641E+01  2.952033841E+01  4.768371582E-07  0.00000E+00  9.000E+00
#rwgt            1           1   4.3537291900349634E-002           5      264864           0
</event>
<event>
      5   9999  3.79277E-02  1.43240E+01 -1.00000E+00  1.79291E-01
      21    -1     0     0   502   501  0.000000000E+00  0.000000000E+00  1.818345619E+03  1.818345619E+03  0.000000000E+00  0.00000E+00  9.000E+00
      21    -1     0     0   501   511  0.000000000E+00  0.000000000E+00 -2.902553038E+02  2.902553038E+02  0.000000000E+00  0.00000E+00  9.000E+00
      25     1     1     2     0     0 -1.137327800E+02 -1.572234390E+02  8.725079989E+02  9.025239959E+02  1.250000000E+02  0.00000E+00  9.000E+00
      25     1     1     2     0     0  1.002232630E+02  1.524621699E+02  9.174938423E+02  9.437740017E+02  1.250000000E+02  0.00000E+00  9.000E+00
      21     1     1     2   502   511  1.350951697E+01  4.761269187E+00 -2.619115263E+02  2.623029248E+02  1.009274029E-05  0.00000E+00  9.000E+00
#rwgt            1           1   3.9250948653630942E-002           5      265029           0
</event>
<event>
      5   9999  3.79277E-02  8.19518E+01 -1.00000E+00  1.27845E-01
      21    -1     0     0   502   501  0.000000000E+00  0.000000000E+00  1.642056478E+02  1.642056478E+02  0.000000000E+00  0.00000E+00  9.000E+00
      21    -1     0     0   512   502  0.000000000E+00  0.000000000E+00 -4.294212331E+02  4.294212331E+02  0.000000000E+00  0.00000E+00  9.000E+00
      25     1     1     2     0     0 -1.076448160E+02 -8.526605734E+01 -1.763103378E+02  2.560625747E+02  1.250000000E+02  0.00000E+00  9.000E+00
      25     1     1     2     0     0  7.182798350E+01  1.589766649E+02  2.730818112E+00  2.146282753E+02  1.250000000E+02  0.00000E+00  9.000E+00
      21     1     1     2   512   501  3.581683249E+01 -7.371060755E+01 -9.163606557E+01  1.229360308E+02  1.348699152E-06  0.00000E+00  9.000E+00
#rwgt            1           1   2.9738825277435335E-002           5      265319           0
</event>
<event>
      5   9999  3.79277E-02  1.74743E+02 -1.00000E+00  1.13825E-01
      21    -1     0     0   502   501  0.000000000E+00  0.000000000E+00  2.613782602E+02  2.613782602E+02  0.000000000E+00  0.00000E+00  9.000E+00
       2    -1     0     0   501     0  0.000000000E+00  0.000000000E+00 -1.148290736E+03  1.148290736E+03  0.000000000E+00  0.00000E+00  9.000E+00
      25     1     1     2     0     0  1.402234387E+02 -8.761350716E+00  1.543482424E+02  2.432853345E+02  1.250000000E+02  0.00000E+00  9.000E+00
      25     1     1     2     0     0 -3.078524312E+02  5.811248568E+01 -8.025242147E+02  8.705287449E+02  1.250000000E+02  0.00000E+00  9.000E+00
       2     1     1     2   502     0  1.676289925E+02 -4.935113496E+01 -2.387365033E+02  2.958549166E+02  4.672030912E-06  0.00000E+00  9.000E+00
#rwgt            2          13   2.7525215089148640E-004           5      265400           0
</event>
<event>
      5   9999  3.79277E-02  1.47822E+02 -1.00000E+00  1.16646E-01
      21    -1     0     0   502   511  0.000000000E+00  0.000000000E+00  6.210459926E+02  6.210459926E+02  0.000000000E+00  0.00000E+00  9.000E+00
      21    -1     0     0   501   502  0.000000000E+00  0.000000000E+00 -2.318505669E+02  2.318505669E+02  0.000000000E+00  0.00000E+00  9.000E+00
      25     1     1     2     0     0  1.456354068E+02  4.415701398E+01  1.438495609E+02  2.438794984E+02  1.250000000E+02  0.00000E+00  9.000E+00
      25     1     1     2     0     0 -3.758505852E+00 -8.565902207E+01 -1.337296204E+02  2.021390754E+02  1.250000000E+02  0.00000E+00  9.000E+00
      21     1     1     2   501   511 -1.418769009E+02  4.150200808E+01  3.790754853E+02  4.068779857E+02  0.000000000E+00  0.00000E+00  9.000E+00
#rwgt            2          11   1.6524617898121246E-003           5      265479           0
</event>
<event>
      5   9999  3.79277E-02  5.20252E+01 -1.00000E+00  1.38099E-01
      21    -1     0     0   502   501  0.000000000E+00  0.000000000E+00  3.704678372E+02  3.704678372E+02  0.000000000E+00  0.00000E+00  9.000E+00
      21    -1     0     0   501   512  0.000000000E+00  0.000000000E+00 -1.662584436E+02  1.662584436E+02  0.000000000E+00  0.00000E+00  9.000E+00
      25     1     1     2     0     0  8.219938774E+01 -1.482498604E+02  1.800319090E+02  2.770762507E+02  1.250000000E+02  0.00000E+00  9.000E+00
      25     1     1     2     0     0 -3.180042359E+01  1.611559139E+02  2.191070614E+01  2.075754672E+02  1.250000000E+02  0.00000E+00  9.000E+00
      21     1     1     2   502   512 -5.039896415E+01 -1.290605353E+01  2.266778441E+00  5.207456279E+01  1.154238983E-07  0.00000E+00  9.000E+00
#rwgt            1           1   5.0319982745022439E-002           5      265514           0
</event>
<event>
      5   9999  3.79277E-02  5.71709E+01 -1.00000E+00  1.35834E-01
      21    -1     0     0   502   501  0.000000000E+00  0.000000000E+00  5.818219904E+02  5.818219904E+02  0.000000000E+00  0.00000E+00  9.000E+00
      21    -1     0     0   511   502  0.000000000E+00  0.000000000E+00 -1.542377045E+02  1.542377045E+02  0.000000000E+00  0.00000E+00  9.000E+00
      25     1     1     2     0     0 -1.444264142E+02 -6.322187197E+00  3.905480355E+02  4.348007903E+02  1.250000000E+02  0.00000E+00  9.000E+00
      25     1     1     2     0     0  1.363949301E+02  6.292618392E+01  9.720576994E+01  2.182595778E+02  1.250000000E+02  0.00000E+00  9.000E+00
      21     1     1     2   511   501  8.031484083E+00 -5.660399672E+01 -6.016951951E+01  8.299932686E+01  9.536743164E-07  0.00000E+00  9.000E+00
#rwgt            1           1   3.9236926454107618E-002           5      265608           0
</event>
<event>
      5   9999  3.79277E-02  3.36301E+01 -1.00000E+00  1.49672E-01
      21    -1     0     0   502   501  0.000000000E+00  0.000000000E+00  2.124844169E+02  2.124844169E+02  0.000000000E+00  0.00000E+00  9.000E+00
      21    -1     0     0   501   512  0.000000000E+00  0.000000000E+00 -2.470152451E+02  2.470152451E+02  0.000000000E+00  0.00000E+00  9.000E+00
      25     1     1     2     0     0  1.407820784E+02 -6.372783953E+01 -1.319972225E+01  1.991985537E+02  1.250000000E+02  0.00000E+00  9.000E+00
      25     1     1     2     0     0 -1.699592080E+02  8.045148462E+01 -1.862982247E+01  2.265626713E+02  1.250000000E+02  0.00000E+00  9.000E+00
      21     1     1     2   502   512  2.917712959E+01 -1.672364509E+01 -2.701283554E+00  3.373843697E+01  6.995615121E-07  0.00000E+00  9.000E+00
#rwgt            1           1   3.5521595198148383E-002           5      265791           0
</event>
<event>
      5   9999  3.79277E-02  2.04987E+01 -1.00000E+00  1.65491E-01
      21    -1     0     0   502   501  0.000000000E+00  0.000000000E+00  1.038775563E+03  1.038775563E+03  0.000000000E+00  0.00000E+00  9.000E+00
      21    -1     0     0   511   502  0.000000000E+00  0.000000000E+00 -6.299292684E+01  6.299292684E+01  0.000000000E+00  0.00000E+00  9.000E+00
      25     1     1     2     0     0 -1.180026176E+02 -6.495729104E+01  1.201663188E+02  2.195655064E+02  1.250000000E+02  0.00000E+00  9.000E+00
      25     1     1     2     0     0  1.028336555E+02  7.874491817E+01  8.305033589E+02  8.497860625E+02  1.250000000E+02  0.00000E+00  9.000E+00
      21     1     1     2   511   501  1.516896215E+01 -1.378762713E+01  2.511295789E+01  3.241692041E+01  0.000000000E+00  0.00000E+00  9.000E+00
#rwgt            1           1   3.4988493721603529E-002           5      266000           0
</event>
<event>
      5   9999  3.79277E-02  1.14763E+01 -1.00000E+00  1.89089E-01
       1    -1     0     0   502     0  0.000000000E+00  0.000000000E+00  6.541109292E+02  6.541109292E+02  0.000000000E+00  0.00000E+00  9.000E+00
      21    -1     0     0   501   502  0.000000000E+00  0.000000000E+00 -7.812632558E+01  7.812632558E+01  0.000000000E+00  0.00000E+00  9.000E+00
      25     1     1     2     0     0  2.878877689E+01 -9.024663333E+01  3.434223264E+01  1.605541574E+02  1.250000000E+02  0.00000E+00  9.000E+00
      25     1     1     2     0     0 -1.734190040E+01  9.106729198E+01  3.943876348E+02  4.239818388E+02  1.250000000E+02  0.00000E+00  9.000E+00
       1     1     1     2   501     0 -1.144687648E+01 -8.206586540E-01  1.472547362E+02  1.477012586E+02  2.697398305E-06  0.00000E+00  9.000E+00
#rwgt            1           1   3.5872056651001037E-002           5      266282           0
</event>
<event>
      5   9999  3.79277E-02  4.46572E+01 -1.00000E+00  1.41935E-01
       3    -1     0     0   502     0  0.000000000E+00  0.000000000E+00  1.631721033E+02  1.631721033E+02  0.000000000E+00  0.00000E+00  9.000E+00
      21    -1     0     0   501   502  0.000000000E+00  0.000000000E+00 -1.040200878E+03  1.040200878E+03  0.000000000E+00  0.00000E+00  9.000E+00
      25     1     1     2     0     0 -5.001674748E+01  2.193101574E+02 -6.261096671E+02  6.769320021E+02  1.250000000E+02  0.00000E+00  9.000E+00
      25     1     1     2     0     0  8.911321679E+00 -2.367631133E+02 -3.363805948E+02  4.300152184E+02  1.250000000E+02  0.00000E+00  9.000E+00
       3     1     1     2   501     0  4.110542581E+01  1.745295592E+01  8.546148686E+01  9.642576127E+01  1.907348633E-06  0.00000E+00  9.000E+00
#rwgt            1           1   2.1493675182756022E-002           5      266533           0
</event>
<event>
      5   9999  3.79277E-02  4.54979E+01 -1.00000E+00  1.41455E-01
      21    -1     0     0   502   501  0.000000000E+00  0.000000000E+00  6.763061317E+01  6.763061317E+01  0.000000000E+00  0.00000E+00  9.000E+00
      21    -1     0     0   501   511  0.000000000E+00  0.000000000E+00 -1.044405401E+03  1.044405401E+03  0.000000000E+00  0.00000E+00  9.000E+00
      25     1     1     2     0     0 -1.860317623E+02 -1.048970531E+02 -3.075304470E+02  3.947292543E+02  1.250000000E+02  0.00000E+00  9.000E+00
      25     1     1     2     0     0  1.416780161E+02  9.475781467E+01 -5.212000211E+02  5.624288095E+02  1.250000000E+02  0.00000E+00  9.000E+00
      21     1     1     2   502   511  4.435374615E+01  1.013923838E+01 -1.480443198E+02  1.548779506E+02  1.907348633E-06  0.00000E+00  9.000E+00
#rwgt            1           1   4.0523023690576025E-002           5      266702           0
</event>
<event>
      5   9999  3.79277E-02  1.41700E+01 -1.00000E+00  1.79745E-01
      21    -1     0     0   502   501  0.000000000E+00  0.000000000E+00  3.239930997E+02  3.239930997E+02  0.000000000E+00  0.00000E+00  9.000E+00
      21    -1     0     0   512   502  0.000000000E+00  0.000000000E+00 -1.503189499E+02  1.503189499E+02  0.000000000E+00  0.00000E+00  9.000E+00
      25     1     1     2     0     0 -5.039394658E+01  1.035996819E+01  2.641757001E+02  2.967501968E+02  1.250000000E+02  0.00000E+00  9.000E+00
      25     1     1     2     0     0  5.801322307E+01  1.587232758E+00 -8.695531840E+01  1.629548427E+02  1.250000000E+02  0.00000E+00  9.000E+00
      21     1     1     2   512   501 -7.619276481E+00 -1.194720095E+01 -3.546231927E+00  1.460701015E+01  1.460009660E-07  0.00000E+00  9.000E+00
#rwgt            1           1   3.9106414771455163E-002           5      266982           0
</event>
<event>
      5   9999  3.79277E-02  6.77720E+01 -1.00000E+00  1.31936E-01
      -2    -1     0     0     0   501  0.000000000E+00  0.000000000E+00  9.114028898E+02  9.114028898E+02  0.000000000E+00  0.00000E+00  9.000E+00
      21    -1     0     0   501   502  0.000000000E+00  0.000000000E+00 -4.091189424E+02  4.091189424E+02  0.000000000E+00  0.00000E+00  9.000E+00
      25     1     1     2     0     0  4.042844748E+01  1.566487514E+02 -2.861769466E+02  3.517037609E+02  1.250000000E+02  0.00000E+00  9.000E+00
      25     1     1     2     0     0 -1.017683543E+02 -1.278311398E+02  3.066472338E+01  2.079974123E+02  1.250000000E+02  0.00000E+00  9.000E+00
      -2     1     1     2     0   502  6.133990684E+01 -2.881761155E+01  7.577961706E+02  7.608206590E+02  0.000000000E+00  0.00000E+00  9.000E+00
#rwgt            1           1   4.2231995223015455E-002           5      267210           0
</event>
<event>
      5   9999  3.79277E-02  8.05595E+01 -1.00000E+00  1.28203E-01
      21    -1     0     0   502   501  0.000000000E+00  0.000000000E+00  9.007677796E+01  9.007677796E+01  0.000000000E+00  0.00000E+00  9.000E+00
      21    -1     0     0   511   502  0.000000000E+00  0.000000000E+00 -1.297999953E+03  1.297999953E+03  0.000000000E+00  0.00000E+00  9.000E+00
      25     1     1     2     0     0  5.995496300E+01 -1.246390091E+02 -1.014360039E+03  1.031349004E+03  1.250000000E+02  0.00000E+00  9.000E+00
      25     1     1     2     0     0  1.332411383E+01  9.117234240E+01 -9.234794227E+00  1.555641651E+02  1.250000000E+02  0.00000E+00  9.000E+00
      21     1     1     2   511   501 -7.327907683E+01  3.346666673E+01 -1.843283423E+02  2.011635620E+02  0.000000000E+00  0.00000E+00  9.000E+00
#rwgt            1           1   4.5472612011807571E-002           5      267319           0
</event>
<event>
      5   9999  3.79277E-02  4.14170E+01 -1.00000E+00  1.43909E-01
      21    -1     0     0   502   512  0.000000000E+00  0.000000000E+00  1.363361350E+02  1.363361350E+02  0.000000000E+00  0.00000E+00  9.000E+00
      21    -1     0     0   501   502  0.000000000E+00  0.000000000E+00 -5.723296241E+02  5.723296241E+02  0.000000000E+00  0.00000E+00  9.000E+00
      25     1     1     2     0     0  6.644511127E+00  2.012403695E+01 -4.851426294E+02  5.014354368E+02  1.250000000E+02  0.00000E+00  9.000E+00
      25     1     1     2     0     0 -2.223840897E+01 -5.849325994E+01  7.476986998E+01  1.585293088E+02  1.250000000E+02  0.00000E+00  9.000E+00
      21     1     1     2   501   512  1.559389784E+01  3.836922299E+01 -2.562072966E+01  4.870101345E+01  6.743495762E-07  0.00000E+00  9.000E+00
#rwgt            1           1   2.2640002230952954E-002           5      267390           0
</event>
<event>
      5   9999  3.79277E-02  1.98526E+01 -1.00000E+00  1.66635E-01
      21    -1     0     0   502   501  0.000000000E+00  0.000000000E+00  5.617675690E+01  5.617675690E+01  0.000000000E+00  0.00000E+00  9.000E+00
      21    -1     0     0   501   511  0.000000000E+00  0.000000000E+00 -8.501888118E+02  8.501888118E+02  0.000000000E+00  0.00000E+00  9.000E+00
      25     1     1     2     0     0  1.926879934E+01  1.687596246E+02 -3.477327639E+02  4.066868237E+02  1.250000000E+02  0.00000E+00  9.000E+00
      25     1     1     2     0     0 -3.470792400E+01 -1.562792160E+02 -3.854012501E+02  4.356454487E+02  1.250000000E+02  0.00000E+00  9.000E+00
      21     1     1     2   502   511  1.543912466E+01 -1.248040869E+01 -6.087804093E+01  6.403329632E+01  9.536743164E-07  0.00000E+00  9.000E+00
#rwgt            1           1   2.8665508735373706E-002           5      267535           0
</event>
<event>
      5   9999  3.79277E-02  9.32578E+01 -1.00000E+00  1.25207E-01
       1    -1     0     0   502     0  0.000000000E+00  0.000000000E+00  4.280600376E+02  4.280600376E+02  0.000000000E+00  0.00000E+00  9.000E+00
      21    -1     0     0   501   502  0.000000000E+00  0.000000000E+00 -1.588524190E+02  1.588524190E+02  0.000000000E+00  0.00000E+00  9.000E+00
      25     1     1     2     0     0  2.070408607E+01 -1.368066168E+02  4.407600675E+01  1.916048119E+02  1.250000000E+02  0.00000E+00  9.000E+00
      25     1     1     2     0     0  7.160071791E+01  1.501045422E+02  8.020903770E+01  2.229720299E+02  1.250000000E+02  0.00000E+00  9.000E+00
       1     1     1     2   501     0 -9.230480397E+01 -1.329792540E+01  1.449225742E+02  1.723356149E+02  0.000000000E+00  0.00000E+00  9.000E+00
#rwgt            1           1   3.4353729564145098E-002           5      267876           0
</event>
<event>
      5   9999  3.79277E-02  3.81078E+01 -1.00000E+00  1.46158E-01
      21    -1     0     0   502   511  0.000000000E+00  0.000000000E+00  3.107733442E+03  3.107733442E+03  0.000000000E+00  0.00000E+00  9.000E+00
      21    -1     0     0   501   502  0.000000000E+00  0.000000000E+00 -8.286992744E+01  8.286992744E+01  0.000000000E+00  0.00000E+00  9.000E+00
      25     1     1     2     0     0  9.804792814E+01 -6.272063762E+01  5.237843856E+01  1.786498682E+02  1.250000000E+02  0.00000E+00  9.000E+00
      25     1     1     2     0     0 -7.720114762E+01  9.462078020E+01  3.700270088E+02  4.092164421E+02  1.250000000E+02  0.00000E+00  9.000E+00
      21     1     1     2   501   511 -2.084678052E+01 -3.190014259E+01  2.602458067E+03  2.602737059E+03  3.051757812E-05  0.00000E+00  9.000E+00
#rwgt            1           1   2.7054011143999961E-002           5      268042           0
</event>
<event>
      5   9999  3.79277E-02  6.43808E+01 -1.00000E+00  1.33088E-01
       2    -1     0     0   502     0  0.000000000E+00  0.000000000E+00  1.345069288E+03  1.345069288E+03  0.000000000E+00  0.00000E+00  9.000E+00
      21    -1     0     0   501   502  0.000000000E+00  0.000000000E+00 -5.780596344E+01  5.780596344E+01  0.000000000E+00  0.00000E+00  9.000E+00
      25     1     1     2     0     0 -2.139767730E+01 -7.900280469E+01  1.124450975E+02  1.869978708E+02  1.250000000E+02  0.00000E+00  9.000E+00
      25     1     1     2     0     0  4.236235646E+01  1.398745801E+02  4.657499937E+02  5.038923735E+02  1.250000000E+02  0.00000E+00  9.000E+00
       2     1     1     2   501     0 -2.096467915E+01 -6.087177545E+01  7.090682338E+02  7.119850076E+02  1.078959322E-05  0.00000E+00  9.000E+00
#rwgt            1           1   3.7243563011741143E-002           5      268120           0
</event>
<event>
      5   9999  3.79277E-02  3.74284E+01 -1.00000E+00  1.46653E-01
      21    -1     0     0   502   501  0.000000000E+00  0.000000000E+00  1.177124871E+02  1.177124871E+02  0.000000000E+00  0.00000E+00  9.000E+00
      21    -1     0     0   501   511  0.000000000E+00  0.000000000E+00 -6.516923664E+02  6.516923664E+02  0.000000000E+00  0.00000E+00  9.000E+00
      25     1     1     2     0     0 -5.787836270E+01 -5.183454011E+01  4.926060171E+01  1.552041601E+02  1.250000000E+02  0.00000E+00  9.000E+00
      25     1     1     2     0     0  2.045463146E+01  5.124494281E+01 -5.399671368E+02  5.569864854E+02  1.250000000E+02  0.00000E+00  9.000E+00
      21     1     1     2   502   511  3.742373124E+01  5.895972903E-01 -4.327334417E+01  5.721420803E+01  4.768371582E-07  0.00000E+00  9.000E+00
#rwgt            1           1   2.5885088924390547E-002           5      268296           0
</event>
<event>
      5   9999  3.79277E-02  1.09405E+01 -1.00000E+00  1.91350E-01
      21    -1     0     0   502   501  0.000000000E+00  0.000000000E+00  2.169317941E+02  2.169317941E+02  0.000000000E+00  0.00000E+00  9.000E+00
      21    -1     0     0   512   502  0.000000000E+00  0.000000000E+00 -5.713875981E+02  5.713875981E+02  0.000000000E+00  0.00000E+00  9.000E+00
      25     1     1     2     0     0  1.485054314E+02  2.107247015E+02 -1.924558826E+01  2.871483165E+02  1.250000000E+02  0.00000E+00  9.000E+00
      25     1     1     2     0     0 -1.522973414E+02 -2.004623407E+02 -1.556866091E+02  3.213144107E+02  1.250000000E+02  0.00000E+00  9.000E+00
      21     1     1     2   512   501  3.791910020E+00 -1.026236080E+01 -1.795236066E+02  1.798566651E+02  1.907348633E-06  0.00000E+00  9.000E+00
#rwgt            1           1   3.2525677272228340E-002           5      268539           0
</event>
<event>
      5   9999  3.79277E-02  3.17403E+01 -1.00000E+00  1.51358E-01
      21    -1     0     0   502   501  0.000000000E+00  0.000000000E+00  5.574374798E+02  5.574374798E+02  0.000000000E+00  0.00000E+00  9.000E+00
      21    -1     0     0   511   502  0.000000000E+00  0.000000000E+00 -1.011653834E+02  1.011653834E+02  0.000000000E+00  0.00000E+00  9.000E+00
      25     1     1     2     0     0 -8.778380904E+01 -7.910757269E+01  4.875511322E+01  1.787905653E+02  1.250000000E+02  0.00000E+00  9.000E+00
      25     1     1     2     0     0  8.525959736E+01  4.746783061E+01  4.174487661E+02  4.465544381E+02  1.250000000E+02  0.00000E+00  9.000E+00
      21     1     1     2   511   501  2.524211686E+00  3.163974208E+01 -9.931782858E+00  3.325785974E+01  8.596304120E-07  0.00000E+00  9.000E+00
#rwgt            1           1   3.4877230987256175E-002           5      268793           0
</event>
<event>
      5   9999  3.79277E-02  5.50113E+01 -1.00000E+00  1.36749E-01
      21    -1     0     0   502   501  0.000000000E+00  0.000000000E+00  2.664158930E+02  2.664158930E+02  0.000000000E+00  0.00000E+00  9.000E+00
       1    -1     0     0   501     0  0.000000000E+00  0.000000000E+00 -1.262468094E+03  1.262468094E+03  0.000000000E+00  0.00000E+00  9.000E+00
      25     1     1     2     0     0  3.224274462E+01  1.666096909E+01  2.368144889E+02  2.702282084E+02  1.250000000E+02  0.00000E+00  9.000E+00
      25     1     1     2     0     0 -3.467147941E+01 -7.161866053E+01 -4.481124751E+02  4.719757773E+02  1.250000000E+02  0.00000E+00  9.000E+00
       1     1     1     2   502     0  2.428734796E+00  5.495769144E+01 -7.847542153E+02  7.866800017E+02  1.078959322E-05  0.00000E+00  9.000E+00
#rwgt            1           1   4.2573610062277015E-002           5      269015           0
</event>
<event>
      5   9999  3.79277E-02  2.87283E+01 -1.00000E+00  1.54358E-01
      21    -1     0     0   502   501  0.000000000E+00  0.000000000E+00  1.408646844E+02  1.408646844E+02  0.000000000E+00  0.00000E+00  9.000E+00
      21    -1     0     0   511   502  0.000000000E+00  0.000000000E+00 -4.234318379E+02  4.234318379E+02  0.000000000E+00  0.00000E+00  9.000E+00
      25     1     1     2     0     0 -9.127959824E+01 -1.901900991E+01 -2.264185103E+02  2.749254983E+02  1.250000000E+02  0.00000E+00  9.000E+00
      25     1     1     2     0     0  1.086437918E+02 -3.867616700E+00  5.501375740E+01  1.745564249E+02  1.250000000E+02  0.00000E+00  9.000E+00
      21     1     1     2   511   501 -1.736419357E+01  2.288662661E+01 -1.111624005E+02  1.148145992E+02  2.336015456E-06  0.00000E+00  9.000E+00
#rwgt            1           1   4.1335086615422158E-002           5      269165           0
</event>
<event>
      5   9999  3.79277E-02  2.85478E+01 -1.00000E+00  1.54552E-01
      21    -1     0     0   512   501  0.000000000E+00  0.000000000E+00  4.438512071E+02  4.438512071E+02  0.000000000E+00  0.00000E+00  9.000E+00
      21    -1     0     0   501   502  0.000000000E+00  0.000000000E+00 -4.272181778E+02  4.272181778E+02  0.000000000E+00  0.00000E+00  9.000E+00
      25     1     1     2     0     0 -1.756187339E+02  1.912764457E+00 -1.644587373E+02  2.711406916E+02  1.250000000E+02  0.00000E+00  9.000E+00
      25     1     1     2     0     0  2.000216642E+02 -1.672737308E+01 -1.418389631E+02  2.757385766E+02  1.250000000E+02  0.00000E+00  9.000E+00
      21     1     1     2   512   502 -2.440293036E+01  1.481460863E+01  3.229307297E+02  3.241901168E+02  3.814697266E-06  0.00000E+00  9.000E+00
#rwgt            1           1   3.5345123083891580E-002           5      269275           0
</event>
<event>
      5   9999  3.79277E-02  2.22141E+01 -1.00000E+00  1.62693E-01
      21    -1     0     0   511   501  0.000000000E+00  0.000000000E+00  1.706983208E+02  1.706983208E+02  0.000000000E+00  0.00000E+00  9.000E+00
      21    -1     0     0   501   502  0.000000000E+00  0.000000000E+00 -2.656051202E+02  2.656051202E+02  0.000000000E+00  0.00000E+00  9.000E+00
      25     1     1     2     0     0 -5.531481808E+01 -1.242810620E+02 -6.189769336E+01  1.948379735E+02  1.250000000E+02  0.00000E+00  9.000E+00
      25     1     1     2     0     0  7.590331041E+01  1.159395684E+02 -6.916730261E+01  1.990286708E+02  1.250000000E+02  0.00000E+00  9.000E+00
      21     1     1     2   511   502 -2.058849233E+01  8.341493665E+00  3.615819663E+01  4.243679672E+01  4.768371582E-07  0.00000E+00  9.000E+00
#rwgt            1           1   4.1264032031077452E-002           5      269389           0
</event>
<event>
      5   9999  3.79277E-02  9.91917E+01 -1.00000E+00  1.23987E-01
      21    -1     0     0   502   501  0.000000000E+00  0.000000000E+00  1.264370300E+02  1.264370300E+02  0.000000000E+00  0.00000E+00  9.000E+00
      21    -1     0     0   512   502  0.000000000E+00  0.000000000E+00 -8.186222499E+02  8.186222499E+02  0.000000000E+00  0.00000E+00  9.000E+00
      25     1     1     2     0     0  2.438796543E+02 -3.529311433E+01 -2.082821255E+02  3.460192675E+02  1.250000000E+02  0.00000E+00  9.000E+00
      25     1     1     2     0     0 -1.793605760E+02  1.106341641E+02 -2.785051950E+02  3.709451147E+02  1.250000000E+02  0.00000E+00  9.000E+00
      21     1     1     2   512   501 -6.451907834E+01 -7.534104976E+01 -2.053978995E+02  2.280948977E+02  2.697398305E-06  0.00000E+00  9.000E+00
#rwgt            1           1   3.6772543886209770E-002           5      269596           0
</event>
<event>
      5   9999  3.79277E-02  9.24766E+00 -1.00000E+00  1.99768E-01
      21    -1     0     0   502   501  0.000000000E+00  0.000000000E+00  1.576246587E+02  1.576246587E+02  0.000000000E+00  0.00000E+00  9.000E+00
      21    -1     0     0   511   502  0.000000000E+00  0.000000000E+00 -1.118709062E+03  1.118709062E+03  0.000000000E+00  0.00000E+00  9.000E+00
      25     1     1     2     0     0 -3.030157728E+02 -2.118988385E+02 -4.357663730E+02  5.850102633E+02  1.250000000E+02  0.00000E+00  9.000E+00
      25     1     1     2     0     0  3.083657911E+02  2.194418180E+02 -3.966276000E+02  5.623011877E+02  1.250000000E+02  0.00000E+00  9.000E+00
      21     1     1     2   511   501 -5.350018286E+00 -7.542979480E+00 -1.286904301E+02  1.290222695E+02  0.000000000E+00  0.00000E+00  9.000E+00
#rwgt            1           1   1.5517050440348200E-002           5      269751           0
</event>
<event>
      5   9999  3.79277E-02  2.34660E+01 -1.00000E+00  1.60839E-01
      21    -1     0     0   502   501  0.000000000E+00  0.000000000E+00  1.876518403E+02  1.876518403E+02  0.000000000E+00  0.00000E+00  9.000E+00
      21    -1     0     0   512   502  0.000000000E+00  0.000000000E+00 -3.540703694E+02  3.540703694E+02  0.000000000E+00  0.00000E+00  9.000E+00
      25     1     1     2     0     0  1.384003086E+02  7.298034300E+01  1.605641529E+01  2.009069047E+02  1.250000000E+02  0.00000E+00  9.000E+00
      25     1     1     2     0     0 -1.608212035E+02 -7.990535216E+01 -7.575045322E+01  2.315414778E+02  1.250000000E+02  0.00000E+00  9.000E+00
      21     1     1     2   512   501  2.242089487E+01  6.925009169E+00 -1.067244912E+02  1.092738271E+02  1.907348633E-06  0.00000E+00  9.000E+00
#rwgt            1           1   3.9867443334434940E-002           5      270127           0
</event>
<event>
      5   9999 -3.79277E-02  8.88484E+00 -1.00000E+00  2.01887E-01
      21    -1     0     0   502   501  0.000000000E+00  0.000000000E+00  4.485991737E+02  4.485991737E+02  0.000000000E+00  0.00000E+00  9.000E+00
      21    -1     0     0   501   511  0.000000000E+00  0.000000000E+00 -2.310219273E+02  2.310219273E+02  0.000000000E+00  0.00000E+00  9.000E+00
      25     1     1     2     0     0  6.861807728E+01 -5.206642242E+01 -1.273490800E+02  1.981467665E+02  1.250000000E+02  0.00000E+00  9.000E+00
      25     1     1     2     0     0 -7.750258759E+01  5.198995671E+01  3.980953130E+02  4.275681056E+02  1.250000000E+02  0.00000E+00  9.000E+00
      21     1     1     2   502   511  8.884510309E+00  7.646570963E-02 -5.316898659E+01  5.390622882E+01  6.743495762E-07  0.00000E+00  9.000E+00
#rwgt            1           1  -2.6236486020333818E-002           5      270267           0
</event>
<event>
      5   9999  3.79277E-02  3.65537E+01 -1.00000E+00  1.47309E-01
      21    -1     0     0   502   501  0.000000000E+00  0.000000000E+00  1.342833953E+02  1.342833953E+02  0.000000000E+00  0.00000E+00  9.000E+00
      21    -1     0     0   501   512  0.000000000E+00  0.000000000E+00 -4.721786092E+02  4.721786092E+02  0.000000000E+00  0.00000E+00  9.000E+00
      25     1     1     2     0     0  1.744900597E+02 -1.815408250E+01 -5.109450905E+01  2.213865409E+02  1.250000000E+02  0.00000E+00  9.000E+00
      25     1     1     2     0     0 -1.703364546E+02 -1.816282241E+01 -2.026110572E+02  2.932927486E+02  1.250000000E+02  0.00000E+00  9.000E+00
      21     1     1     2   502   512 -4.153605134E+00  3.631690491E+01 -8.418964753E+01  9.178271498E+01  9.536743164E-07  0.00000E+00  9.000E+00
#rwgt            1           1   4.2220125667893911E-002           5      270593           0
</event>
<event>
      5   9999  3.79277E-02  1.53582E+01 -1.00000E+00  1.76424E-01
      21    -1     0     0   511   501  0.000000000E+00  0.000000000E+00  3.498634530E+02  3.498634530E+02  0.000000000E+00  0.00000E+00  9.000E+00
      21    -1     0     0   501   502  0.000000000E+00  0.000000000E+00 -1.255277689E+02  1.255277689E+02  0.000000000E+00  0.00000E+00  9.000E+00
      25     1     1     2     0     0 -6.672061557E+01 -9.346588228E+00  2.163630837E+02  2.587991175E+02  1.250000000E+02  0.00000E+00  9.000E+00
      25     1     1     2     0     0  5.536542392E+01 -9.942650861E-01 -5.825275699E+01  1.486092273E+02  1.250000000E+02  0.00000E+00  9.000E+00
      21     1     1     2   511   502  1.135519165E+01  1.034085331E+01  6.622535734E+01  6.798287711E+01  0.000000000E+00  0.00000E+00  9.000E+00
#rwgt            1           1   4.0284510837596592E-002           5      270673           0
</event>
<event>
      5   9999  3.79277E-02  1.05638E+02 -1.00000E+00  1.22766E-01
      21    -1     0     0   502   512  0.000000000E+00  0.000000000E+00  2.516710823E+02  2.516710823E+02  0.000000000E+00  0.00000E+00  9.000E+00
      21    -1     0     0   501   502  0.000000000E+00  0.000000000E+00 -1.990025832E+02  1.990025832E+02  0.000000000E+00  0.00000E+00  9.000E+00
      25     1     1     2     0     0 -3.783778168E+01  6.336621186E+01  1.222810941E+02  1.898015819E+02  1.250000000E+02  0.00000E+00  9.000E+00
      25     1     1     2     0     0 -6.119068622E+00  3.269214525E+01 -8.404068145E+01  1.542532188E+02  1.250000000E+02  0.00000E+00  9.000E+00
      21     1     1     2   501   512  4.395685031E+01 -9.605835712E+01  1.442808642E+01  1.066188648E+02  2.402000627E-06  0.00000E+00  9.000E+00
#rwgt            1           1   5.0265568351137713E-002           5      270839           0
</event>
<event>
      5   9999  3.79277E-02  7.28668E+01 -1.00000E+00  1.30344E-01
      21    -1     0     0   502   501  0.000000000E+00  0.000000000E+00  5.561440574E+01  5.561440574E+01  0.000000000E+00  0.00000E+00  9.000E+00
       2    -1     0     0   501     0  0.000000000E+00  0.000000000E+00 -9.530099762E+02  9.530099762E+02  0.000000000E+00  0.00000E+00  9.000E+00
      25     1     1     2     0     0 -1.854866290E+01  6.776696145E+01 -7.331529164E+01  1.610482721E+02  1.250000000E+02  0.00000E+00  9.000E+00
      25     1     1     2     0     0  6.044365890E+00  4.018917612E+00 -5.342242336E+02  5.487013923E+02  1.250000000E+02  0.00000E+00  9.000E+00
       2     1     1     2   502     0  1.250429701E+01 -7.178587906E+01 -2.898560452E+02  2.988747176E+02  3.814697266E-06  0.00000E+00  9.000E+00
#rwgt            1           1   4.0088498370343298E-002           5      270947           0
</event>
<event>
      5   9999  3.79277E-02  4.12486E+01 -1.00000E+00  1.44017E-01
      21    -1     0     0   511   501  0.000000000E+00  0.000000000E+00  3.019405365E+03  3.019405365E+03  0.000000000E+00  0.00000E+00  9.000E+00
      21    -1     0     0   501   502  0.000000000E+00  0.000000000E+00 -2.398667302E+01  2.398667302E+01  0.000000000E+00  0.00000E+00  9.000E+00
      25     1     1     2     0     0 -1.731090391E+02 -1.504788229E+01  1.629879214E+03  1.643874822E+03  1.250000000E+02  0.00000E+00  9.000E+00
      25     1     1     2     0     0  2.143574905E+02  1.495317888E+01  9.518528230E+02  9.837792069E+02  1.250000000E+02  0.00000E+00  9.000E+00
      21     1     1     2   511   502 -4.124845140E+01  9.470341224E-02  4.136866555E+02  4.157380096E+02  5.394796609E-06  0.00000E+00  9.000E+00
#rwgt            1           1   4.7459504175574804E-002           5      271171           0
</event>
<event>
      5   9999  3.79277E-02  7.32383E+01 -1.00000E+00  1.30234E-01
      21    -1     0     0   502   501  0.000000000E+00  0.000000000E+00  1.105643496E+03  1.105643496E+03  0.000000000E+00  0.00000E+00  9.000E+00
      21    -1     0     0   512   502  0.000000000E+00  0.000000000E+00 -3.522265594E+02  3.522265594E+02  0.000000000E+00  0.00000E+00  9.000E+00
      25     1     1     2     0     0  2.646746554E+02 -3.227279188E+02  1.739215916E+02  4.691265318E+02  1.250000000E+02  0.00000E+00  9.000E+00
      25     1     1     2     0     0 -3.004899671E+02  2.588443677E+02  7.193381611E+02  8.308832752E+02  1.250000000E+02  0.00000E+00  9.000E+00
      21     1     1     2   512   501  3.581531173E+01  6.388355117E+01 -1.398428163E+02  1.578602481E+02  0.000000000E+00  0.00000E+00  9.000E+00
#rwgt            1           1  0.15925294081726687                5      271387           0
</event>
<event>
      5   9999  3.79277E-02  7.94424E+01 -1.00000E+00  1.28497E-01
      21    -1     0     0   502   501  0.000000000E+00  0.000000000E+00  3.518223981E+02  3.518223981E+02  0.000000000E+00  0.00000E+00  9.000E+00
       1    -1     0     0   501     0  0.000000000E+00  0.000000000E+00 -2.035861627E+02  2.035861627E+02  0.000000000E+00  0.00000E+00  9.000E+00
      25     1     1     2     0     0 -9.599764385E+01 -6.711032719E+01  1.777905838E+02  2.468883054E+02  1.250000000E+02  0.00000E+00  9.000E+00
      25     1     1     2     0     0  1.693578568E+02  3.662479034E+01  2.048038051E+01  2.146343517E+02  1.250000000E+02  0.00000E+00  9.000E+00
       1     1     1     2   502     0 -7.336021300E+01  3.048553685E+01 -5.003472894E+01  9.388590367E+01  6.743495762E-07  0.00000E+00  9.000E+00
#rwgt            1           1   3.1593201858837294E-002           5      271551           0
</event>
<event>
      5   9999  3.79277E-02  7.38574E+00 -1.00000E+00  2.12313E-01
      21    -1     0     0   502   501  0.000000000E+00  0.000000000E+00  1.190778276E+01  1.190778276E+01  0.000000000E+00  0.00000E+00  9.000E+00
      21    -1     0     0   511   502  0.000000000E+00  0.000000000E+00 -3.175679713E+03  3.175679713E+03  0.000000000E+00  0.00000E+00  9.000E+00
      25     1     1     2     0     0  4.126266634E+00 -3.612831114E+01 -4.041918790E+02  4.246390891E+02  1.250000000E+02  0.00000E+00  9.000E+00
      25     1     1     2     0     0  1.646562663E+00  3.152140881E+01 -2.629983394E+03  2.633141462E+03  1.250000000E+02  0.00000E+00  9.000E+00
      21     1     1     2   511   501 -5.772829297E+00  4.606902328E+00 -1.295966572E+02  1.298069438E+02  2.697398305E-06  0.00000E+00  9.000E+00
#rwgt            1           1   2.7414674191875040E-002           5      271612           0
</event>
<event>
      5   9999  3.79277E-02  5.37477E+01 -1.00000E+00  1.37308E-01
      21    -1     0     0   502   512  0.000000000E+00  0.000000000E+00  1.385771829E+02  1.385771829E+02  0.000000000E+00  0.00000E+00  9.000E+00
      21    -1     0     0   501   502  0.000000000E+00  0.000000000E+00 -1.272998618E+03  1.272998618E+03  0.000000000E+00  0.00000E+00  9.000E+00
      25     1     1     2     0     0 -2.652478744E+02  2.012020163E+02 -6.741277464E+02  7.621757702E+02  1.250000000E+02  0.00000E+00  9.000E+00
      25     1     1     2     0     0  3.161133060E+02 -2.185663527E+02 -3.997237334E+02  5.684214420E+02  1.250000000E+02  0.00000E+00  9.000E+00
      21     1     1     2   501   512 -5.086543165E+01  1.736433639E+01 -6.056995483E+01  8.097858817E+01  1.348699152E-06  0.00000E+00  9.000E+00
#rwgt            1           1   1.8649993819941427E-002           5      271919           0
</event>
<event>
      5   9999  3.79277E-02  2.11391E+02 -1.00000E+00  1.10779E-01
      21    -1     0     0   502   511  0.000000000E+00  0.000000000E+00  4.623261766E+02  4.623261766E+02  0.000000000E+00  0.00000E+00  9.000E+00
      21    -1     0     0   501   502  0.000000000E+00  0.000000000E+00 -4.475425615E+02  4.475425615E+02  0.000000000E+00  0.00000E+00  9.000E+00
      25     1     1     2     0     0 -8.165040783E+01  1.245230377E+01  7.326066287E+01  1.667752191E+02  1.250000000E+02  0.00000E+00  9.000E+00
      25     1     1     2     0     0  2.846934592E+02  4.636774607E+01 -2.913288794E+02  4.285998712E+02  1.250000000E+02  0.00000E+00  9.000E+00
      21     1     1     2   501   511 -2.030430514E+02 -5.882004984E+01  2.328518317E+02  3.144936478E+02  6.031565972E-06  0.00000E+00  9.000E+00
#rwgt            1           1   3.7536943983969499E-002           5      272018           0
</event>
<event>
      5   9999  3.79277E-02  6.88303E+01 -1.00000E+00  1.31592E-01
      21    -1     0     0   502   501  0.000000000E+00  0.000000000E+00  7.467649733E+01  7.467649733E+01  0.000000000E+00  0.00000E+00  9.000E+00
       2    -1     0     0   501     0  0.000000000E+00  0.000000000E+00 -7.971315429E+02  7.971315429E+02  0.000000000E+00  0.00000E+00  9.000E+00
      25     1     1     2     0     0 -2.316456328E+01 -9.557141049E+01 -1.178710241E+02  1.979622940E+02  1.250000000E+02  0.00000E+00  9.000E+00
      25     1     1     2     0     0  8.262611384E+01  6.090254219E+01 -1.731016644E+02  2.369079580E+02  1.250000000E+02  0.00000E+00  9.000E+00
       2     1     1     2   502     0 -5.946155056E+01  3.466886830E+01 -4.314823571E+02  4.369377883E+02  0.000000000E+00  0.00000E+00  9.000E+00
#rwgt            1           1   7.6314596200626000E-002           5      272099           0
</event>
<event>
      5   9999  3.79277E-02  4.76704E+01 -1.00000E+00  1.40268E-01
      21    -1     0     0   502   511  0.000000000E+00  0.000000000E+00  1.185207539E+03  1.185207539E+03  0.000000000E+00  0.00000E+00  9.000E+00
      21    -1     0     0   501   502  0.000000000E+00  0.000000000E+00 -2.270791683E+02  2.270791683E+02  0.000000000E+00  0.00000E+00  9.000E+00
      25     1     1     2     0     0 -9.781457125E+01 -9.478283219E+01 -9.806102321E+01  2.092664328E+02  1.250000000E+02  0.00000E+00  9.000E+00
      25     1     1     2     0     0  6.063008773E+01  1.246119573E+02  4.666558288E+01  1.923715781E+02  1.250000000E+02  0.00000E+00  9.000E+00
      21     1     1     2   501   511  3.718448352E+01 -2.982912510E+01  1.009523811E+03  1.010648696E+03  0.000000000E+00  0.00000E+00  9.000E+00
#rwgt            1           1   1.5524565444208969E-002           5      272205           0
</event>
<event>
      5   9999  3.79277E-02  3.98788E+01 -1.00000E+00  1.44922E-01
       2    -1     0     0   502     0  0.000000000E+00  0.000000000E+00  2.323165899E+02  2.323165899E+02  0.000000000E+00  0.00000E+00  9.000E+00
      21    -1     0     0   501   502  0.000000000E+00  0.000000000E+00 -8.584893853E+02  8.584893853E+02  0.000000000E+00  0.00000E+00  9.000E+00
      25     1     1     2     0     0  1.142119356E+01  1.105488080E+01 -8.129457736E+02  8.226533200E+02  1.250000000E+02  0.00000E+00  9.000E+00
      25     1     1     2     0     0  2.801890213E+01 -1.695372709E+01  7.483753069E+01  1.493256299E+02  1.250000000E+02  0.00000E+00  9.000E+00
       2     1     1     2   501     0 -3.944009570E+01  5.898846289E+00  1.119354475E+02  1.188270253E+02  2.336015456E-06  0.00000E+00  9.000E+00
#rwgt            1           1   3.9869166934122312E-002           5      272249           0
</event>
<event>
      5   9999  3.79277E-02  5.08622E+01 -1.00000E+00  1.38653E-01
      21    -1     0     0   511   501  0.000000000E+00  0.000000000E+00  2.799182626E+02  2.799182626E+02  0.000000000E+00  0.00000E+00  9.000E+00
      21    -1     0     0   501   502  0.000000000E+00  0.000000000E+00 -4.253659375E+02  4.253659375E+02  0.000000000E+00  0.00000E+00  9.000E+00
      25     1     1     2     0     0 -7.317493282E+01 -8.223261186E+01 -2.663686130E+02  3.141560301E+02  1.250000000E+02  0.00000E+00  9.000E+00
      25     1     1     2     0     0  8.310806742E+01  1.321154209E+02 -5.549725533E+01  2.075244098E+02  1.250000000E+02  0.00000E+00  9.000E+00
      21     1     1     2   511   502 -9.933134598E+00 -4.988280906E+01  1.764181934E+02  1.836037602E+02  3.303624740E-06  0.00000E+00  9.000E+00
#rwgt            1           1   3.4771832560606557E-002           5      272387           0
</event>
<event>
      5   9999  3.79277E-02  1.55423E+01 -1.00000E+00  1.75943E-01
      21    -1     0     0   502   512  0.000000000E+00  0.000000000E+00  1.219771083E+03  1.219771083E+03  0.000000000E+00  0.00000E+00  9.000E+00
      21    -1     0     0   501   502  0.000000000E+00  0.000000000E+00 -1.042272729E+02  1.042272729E+02  0.000000000E+00  0.00000E+00  9.000E+00
      25     1     1     2     0     0  9.541233826E+01  1.150360053E+02  1.775866875E+02  2.636263044E+02  1.250000000E+02  0.00000E+00  9.000E+00
      25     1     1     2     0     0 -1.077248377E+02 -1.055509644E+02  9.577176841E+01  2.180432947E+02  1.250000000E+02  0.00000E+00  9.000E+00
      21     1     1     2   501   512  1.231249942E+01 -9.485040909E+00  8.421853542E+02  8.423287567E+02  1.078959322E-05  0.00000E+00  9.000E+00
#rwgt            1           1   8.3246459862907241E-002           5      272462           0
</event>
<event>
      5   9999  3.79277E-02  5.26818E+01 -1.00000E+00  1.37793E-01
       3    -1     0     0   502     0  0.000000000E+00  0.000000000E+00  4.475161256E+02  4.475161256E+02  0.000000000E+00  0.00000E+00  9.000E+00
      21    -1     0     0   501   502  0.000000000E+00  0.000000000E+00 -3.087200470E+02  3.087200470E+02  0.000000000E+00  0.00000E+00  9.000E+00
      25     1     1     2     0     0  1.532482993E+02  1.344960382E+02  1.687690762E+00  2.391695504E+02  1.250000000E+02  0.00000E+00  9.000E+00
      25     1     1     2     0     0 -1.502573299E+02 -8.189920541E+01 -1.274647755E+02  2.472994420E+02  1.250000000E+02  0.00000E+00  9.000E+00
       3     1     1     2   501     0 -2.990969371E+00 -5.259683279E+01  2.645731634E+02  2.697671801E+02  5.394796609E-06  0.00000E+00  9.000E+00
#rwgt            1           1   4.0565405800323209E-002           5      272677           0
</event>
<event>
      5   9999  3.79277E-02  1.38261E+01 -1.00000E+00  1.80784E-01
      21    -1     0     0   502   501  0.000000000E+00  0.000000000E+00  2.578225383E+02  2.578225383E+02  0.000000000E+00  0.00000E+00  9.000E+00
      21    -1     0     0   501   511  0.000000000E+00  0.000000000E+00 -2.361182792E+02  2.361182792E+02  0.000000000E+00  0.00000E+00  9.000E+00
      25     1     1     2     0     0 -1.638536909E+02  1.152227341E+01 -4.211927179E+01  2.106652033E+02  1.250000000E+02  0.00000E+00  9.000E+00
      25     1     1     2     0     0  1.774854775E+02 -1.383224200E+01  1.037659758E+02  2.410078907E+02  1.250000000E+02  0.00000E+00  9.000E+00
      21     1     1     2   502   511 -1.363178657E+01  2.309968597E+00 -3.994244480E+01  4.226772357E+01  0.000000000E+00  0.00000E+00  9.000E+00
#rwgt            1           1   4.2365664908108135E-002           5      272826           0
</event>
<event>
      5   9999  3.79277E-02  7.43491E+01 -1.00000E+00  1.29908E-01
      21    -1     0     0   502   512  0.000000000E+00  0.000000000E+00  4.236212488E+02  4.236212488E+02  0.000000000E+00  0.00000E+00  9.000E+00
      21    -1     0     0   501   502  0.000000000E+00  0.000000000E+00 -3.810628641E+02  3.810628641E+02  0.000000000E+00  0.00000E+00  9.000E+00
      25     1     1     2     0     0  1.369801703E+02  1.958273229E+02 -1.417824833E+02  3.046952248E+02  1.250000000E+02  0.00000E+00  9.000E+00
      25     1     1     2     0     0 -6.588457212E+01 -2.175805618E+02 -4.103942605E+01  2.626619733E+02  1.250000000E+02  0.00000E+00  9.000E+00
      21     1     1     2   501   512 -7.109559816E+01  2.175323896E+01  2.253802941E+02  2.373269147E+02  2.697398305E-06  0.00000E+00  9.000E+00
#rwgt            1           1   2.2434126018499270E-002           5      272990           0
</event>
<event>
      5   9999  3.79277E-02  2.55302E+02 -1.00000E+00  1.07920E-01
      21    -1     0     0   511   501  0.000000000E+00  0.000000000E+00  4.407829191E+02  4.407829191E+02  0.000000000E+00  0.00000E+00  9.000E+00
      21    -1     0     0   501   502  0.000000000E+00  0.000000000E+00 -4.841490041E+02  4.841490041E+02  0.000000000E+00  0.00000E+00  9.000E+00
      25     1     1     2     0     0 -3.519284966E+01 -4.941088758E+01 -3.167938496E+02  3.459238581E+02  1.250000000E+02  0.00000E+00  9.000E+00
      25     1     1     2     0     0 -1.157465418E+02 -1.564930589E+02  2.177807800E+02  3.177118310E+02  1.250000000E+02  0.00000E+00  9.000E+00
      21     1     1     2   511   502  1.509393915E+02  2.059039464E+02  5.564698463E+01  2.612962341E+02  4.211311753E-06  0.00000E+00  9.000E+00
#rwgt            1           1   5.3215330156978366E-002           5      273111           0
</event>
<event>
      5   9999  3.79277E-02  2.21521E+01 -1.00000E+00  1.62788E-01
      21    -1     0     0   502   501  0.000000000E+00  0.000000000E+00  7.909641517E+01  7.909641517E+01  0.000000000E+00  0.00000E+00  9.000E+00
      21    -1     0     0   501   512  0.000000000E+00  0.000000000E+00 -4.825720649E+02  4.825720649E+02  0.000000000E+00  0.00000E+00  9.000E+00
      25     1     1     2     0     0 -9.568549656E+01 -6.242666041E+01 -1.127156743E+02  2.034271993E+02  1.250000000E+02  0.00000E+00  9.000E+00
      25     1     1     2     0     0  1.091252346E+02  8.003597939E+01 -2.376264330E+02  3.006749017E+02  1.250000000E+02  0.00000E+00  9.000E+00
      21     1     1     2   502   512 -1.343973806E+01 -1.760931898E+01 -5.313354238E+01  5.756637908E+01  0.000000000E+00  0.00000E+00  9.000E+00
#rwgt            1           1   4.5408259381816432E-002           5      273224           0
</event>
<event>
      5   9999  3.79277E-02  5.65072E+01 -1.00000E+00  1.36110E-01
      21    -1     0     0   511   501  0.000000000E+00  0.000000000E+00  1.573469404E+02  1.573469404E+02  0.000000000E+00  0.00000E+00  9.000E+00
      21    -1     0     0   501   502  0.000000000E+00  0.000000000E+00 -5.938308026E+02  5.938308026E+02  0.000000000E+00  0.00000E+00  9.000E+00
      25     1     1     2     0     0 -8.356905356E+01 -1.438652415E+02  1.136034091E+01  2.084107765E+02  1.250000000E+02  0.00000E+00  9.000E+00
      25     1     1     2     0     0  5.804746825E+01  1.942805953E+02 -4.118399777E+02  4.757642542E+02  1.250000000E+02  0.00000E+00  9.000E+00
      21     1     1     2   511   502  2.552158531E+01 -5.041535378E+01 -3.600422532E+01  6.700271229E+01  0.000000000E+00  0.00000E+00  9.000E+00
#rwgt            1           1   3.8158198087920182E-002           5      273471           0
</event>
<event>
      5   9999  3.79277E-02  1.72707E+01 -1.00000E+00  1.71804E-01
      21    -1     0     0   502   501  0.000000000E+00  0.000000000E+00  5.952601342E+02  5.952601342E+02  0.000000000E+00  0.00000E+00  9.000E+00
       2    -1     0     0   501     0  0.000000000E+00  0.000000000E+00 -1.162964034E+03  1.162964034E+03  0.000000000E+00  0.00000E+00  9.000E+00
      25     1     1     2     0     0 -1.155239660E+02  7.911353396E+01  4.636350671E+02  5.001871784E+02  1.250000000E+02  0.00000E+00  9.000E+00
      25     1     1     2     0     0  1.007435487E+02 -7.017950054E+01  4.552842874E+01  1.810311099E+02  1.250000000E+02  0.00000E+00  9.000E+00
       2     1     1     2   502     0  1.478041726E+01 -8.934033420E+00 -1.076867396E+03  1.077005880E+03  1.525878906E-05  0.00000E+00  9.000E+00
#rwgt            1           1   3.8822728471409398E-002           5      273581           0
</event>
<event>
      5   9999  3.79277E-02  5.48081E+01 -1.00000E+00  1.36838E-01
      21    -1     0     0   502   501  0.000000000E+00  0.000000000E+00  1.793121418E+03  1.793121418E+03  0.000000000E+00  0.00000E+00  9.000E+00
      21    -1     0     0   501   511  0.000000000E+00  0.000000000E+00 -5.937354380E+01  5.937354380E+01  0.000000000E+00  0.00000E+00  9.000E+00
      25     1     1     2     0     0 -5.824682470E+01  1.111100206E+01  4.495389442E+01  1.454716453E+02  1.250000000E+02  0.00000E+00  9.000E+00
      25     1     1     2     0     0  1.059839241E+01  1.597314909E+01  1.581436208E+03  1.586484462E+03  1.250000000E+02  0.00000E+00  9.000E+00
      21     1     1     2   502   511  4.764843230E+01 -2.708415115E+01  1.073577716E+02  1.205388546E+02  1.348699152E-06  0.00000E+00  9.000E+00
#rwgt            1           1   6.3952995631304563E-002           5      274009           0
</event>
<event>
      5   9999  3.79277E-02  3.09722E+01 -1.00000E+00  1.52084E-01
      -4    -1     0     0     0   501  0.000000000E+00  0.000000000E+00  6.483268593E+02  6.483268593E+02  0.000000000E+00  0.00000E+00  9.000E+00
      21    -1     0     0   501   502  0.000000000E+00  0.000000000E+00 -4.893260940E+01  4.893260940E+01  0.000000000E+00  0.00000E+00  9.000E+00
      25     1     1     2     0     0  3.544997735E+01 -8.192672205E+01  2.469527460E+02  2.908252868E+02  1.250000000E+02  0.00000E+00  9.000E+00
      25     1     1     2     0     0 -3.207422271E+01  1.127143875E+02  3.030730154E+02  3.481544795E+02  1.250000000E+02  0.00000E+00  9.000E+00
      -4     1     1     2     0   502 -3.375754635E+00 -3.078766541E+01  4.936848856E+01  5.827970250E+01  9.536743164E-07  0.00000E+00  9.000E+00
#rwgt            1           1   3.4516947806401660E-002           5      274101           0
</event>
<event>
      5   9999  3.79277E-02  1.48828E+01 -1.00000E+00  1.77705E-01
      21    -1     0     0   502   511  0.000000000E+00  0.000000000E+00  6.499515058E+02  6.499515058E+02  0.000000000E+00  0.00000E+00  9.000E+00
      21    -1     0     0   501   502  0.000000000E+00  0.000000000E+00 -6.342586389E+01  6.342586389E+01  0.000000000E+00  0.00000E+00  9.000E+00
      25     1     1     2     0     0  2.060913612E+00 -1.283744631E+02  2.219650750E+02  2.852678472E+02  1.250000000E+02  0.00000E+00  9.000E+00
      25     1     1     2     0     0 -1.693864008E+01  1.287612179E+02  2.275527931E+02  2.902957843E+02  1.250000000E+02  0.00000E+00  9.000E+00
      21     1     1     2   501   511  1.487772647E+01 -3.867547516E-01  1.370077739E+02  1.378137382E+02  1.907348633E-06  0.00000E+00  9.000E+00
#rwgt            1           1   4.9933422596401357E-002           5      274207           0
</event>
<event>
      5   9999  3.79277E-02  7.58566E+01 -1.00000E+00  1.29477E-01
      21    -1     0     0   512   501  0.000000000E+00  0.000000000E+00  8.774676833E+01  8.774676833E+01  0.000000000E+00  0.00000E+00  9.000E+00
      21    -1     0     0   501   502  0.000000000E+00  0.000000000E+00 -1.059890706E+03  1.059890706E+03  0.000000000E+00  0.00000E+00  9.000E+00
      25     1     1     2     0     0  7.929408529E+00  1.925504009E+02 -3.686014720E+02  4.343162184E+02  1.250000000E+02  0.00000E+00  9.000E+00
      25     1     1     2     0     0 -8.674382333E+00 -2.684033837E+02 -5.327658522E+02  6.095736826E+02  1.250000000E+02  0.00000E+00  9.000E+00
      21     1     1     2   512   502  7.449738031E-01  7.585298273E+01 -7.077661383E+01  1.037475737E+02  2.697398305E-06  0.00000E+00  9.000E+00
#rwgt            1           1   4.1099945799463890E-002           5      274388           0
</event>
<event>
      5   9999  3.79277E-02  1.68665E+02 -1.00000E+00  1.14410E-01
      21    -1     0     0   511   501  0.000000000E+00  0.000000000E+00  1.897114785E+02  1.897114785E+02  0.000000000E+00  0.00000E+00  9.000E+00
      21    -1     0     0   501   502  0.000000000E+00  0.000000000E+00 -1.238022690E+03  1.238022690E+03  0.000000000E+00  0.00000E+00  9.000E+00
      25     1     1     2     0     0 -1.965620656E+02  1.070494262E+02 -6.888474156E+02  7.350047532E+02  1.250000000E+02  0.00000E+00  9.000E+00
      25     1     1     2     0     0  6.197965544E+01 -5.385457330E+00 -4.705102465E+02  4.907905591E+02  1.250000000E+02  0.00000E+00  9.000E+00
      21     1     1     2   511   502  1.345824102E+02 -1.016639689E+02  1.110464501E+02  2.019388566E+02  1.348699152E-06  0.00000E+00  9.000E+00
#rwgt            2          11   3.9000947897552137E-003           5      274466           0
</event>
<event>
      5   9999  3.79277E-02  3.81072E+01 -1.00000E+00  1.46158E-01
      21    -1     0     0   502   512  0.000000000E+00  0.000000000E+00  1.385771500E+02  1.385771500E+02  0.000000000E+00  0.00000E+00  9.000E+00
      21    -1     0     0   501   502  0.000000000E+00  0.000000000E+00 -5.423955651E+02  5.423955651E+02  0.000000000E+00  0.00000E+00  9.000E+00
      25     1     1     2     0     0  7.295360654E+01  1.165790283E+02 -4.077478912E+02  4.481029361E+02  1.250000000E+02  0.00000E+00  9.000E+00
      25     1     1     2     0     0 -1.077555659E+02 -1.010553517E+02 -5.570781977E+00  1.935961769E+02  1.250000000E+02  0.00000E+00  9.000E+00
      21     1     1     2   501   512  3.480195941E+01 -1.552367664E+01  9.500258174E+00  3.927360208E+01  5.717076687E-07  0.00000E+00  9.000E+00
#rwgt            1           1   4.1192110203487058E-002           5      274486           0
</event>
<event>
      5   9999  3.79277E-02  1.32456E+01 -1.00000E+00  1.82629E-01
      21    -1     0     0   502   511  0.000000000E+00  0.000000000E+00  5.447145104E+01  5.447145104E+01  0.000000000E+00  0.00000E+00  9.000E+00
      21    -1     0     0   501   502  0.000000000E+00  0.000000000E+00 -6.828140164E+02  6.828140164E+02  0.000000000E+00  0.00000E+00  9.000E+00
      25     1     1     2     0     0 -1.075183337E+02  5.592642742E+01 -2.566741655E+02  3.101525182E+02  1.250000000E+02  0.00000E+00  9.000E+00
      25     1     1     2     0     0  9.457270529E+01 -5.312363475E+01 -3.778569303E+02  4.125130022E+02  1.250000000E+02  0.00000E+00  9.000E+00
      21     1     1     2   501   511  1.294562837E+01 -2.802792672E+00  6.188530473E+00  1.461994699E+01  4.380028980E-07  0.00000E+00  9.000E+00
#rwgt            1           1   3.8481519192020447E-002           5      274665           0
</event>
<event>
      5   9999  3.79277E-02  2.75464E+01 -1.00000E+00  1.55659E-01
      21    -1     0     0   502   501  0.000000000E+00  0.000000000E+00  1.969106517E+02  1.969106517E+02  0.000000000E+00  0.00000E+00  9.000E+00
      21    -1     0     0   501   512  0.000000000E+00  0.000000000E+00 -4.142903970E+02  4.142903970E+02  0.000000000E+00  0.00000E+00  9.000E+00
      25     1     1     2     0     0  2.782658231E+01 -8.817711663E+01 -8.570057849E+01  1.775362265E+02  1.250000000E+02  0.00000E+00  9.000E+00
      25     1     1     2     0     0 -4.462745620E+01  1.100067561E+02  1.007083586E+02  1.996503687E+02  1.250000000E+02  0.00000E+00  9.000E+00
      21     1     1     2   502   512  1.680087390E+01 -2.182963945E+01 -2.323875253E+02  2.340144535E+02  0.000000000E+00  0.00000E+00  9.000E+00
#rwgt            1           1   2.7546612570623175E-002           5      274923           0
</event>
<event>
      5   9999  3.79277E-02  6.01374E+01 -1.00000E+00  1.34650E-01
      21    -1     0     0   502   501  0.000000000E+00  0.000000000E+00  3.371016529E+02  3.371016529E+02  0.000000000E+00  0.00000E+00  9.000E+00
      21    -1     0     0   501   511  0.000000000E+00  0.000000000E+00 -2.006118274E+02  2.006118274E+02  0.000000000E+00  0.00000E+00  9.000E+00
      25     1     1     2     0     0 -1.419164990E+02 -1.916228054E+01 -3.386923237E+01  1.930792857E+02  1.250000000E+02  0.00000E+00  9.000E+00
      25     1     1     2     0     0  1.057024699E+02 -2.884862300E+01  2.135327925E+02  2.706039701E+02  1.250000000E+02  0.00000E+00  9.000E+00
      21     1     1     2   502   511  3.621402912E+01  4.801090354E+01 -4.317373461E+01  7.403022439E+01  1.261592536E-06  0.00000E+00  9.000E+00
#rwgt            1           1   5.0919434900172013E-002           5      275053           0
</event>
<event>
      5   9999  3.79277E-02  4.40228E+01 -1.00000E+00  1.42305E-01
      21    -1     0     0   502   501  0.000000000E+00  0.000000000E+00  8.793910002E+02  8.793910002E+02  0.000000000E+00  0.00000E+00  9.000E+00
      21    -1     0     0   512   502  0.000000000E+00  0.000000000E+00 -7.652536581E+01  7.652536581E+01  0.000000000E+00  0.00000E+00  9.000E+00
      25     1     1     2     0     0  1.552926215E+02 -5.871197154E+01  6.291531304E+02  6.625870172E+02  1.250000000E+02  0.00000E+00  9.000E+00
      25     1     1     2     0     0 -1.180873471E+02  8.224447006E+01  1.264657343E+02  2.287517352E+02  1.250000000E+02  0.00000E+00  9.000E+00
      21     1     1     2   512   501 -3.720527441E+01 -2.353249852E+01  4.724676971E+01  6.457761361E+01  1.784161275E-06  0.00000E+00  9.000E+00
#rwgt            1           1   3.5145334870139773E-002           5      275153           0
</event>
<event>
      5   9999  3.79277E-02  4.35984E+01 -1.00000E+00  1.42558E-01
      21    -1     0     0   502   501  0.000000000E+00  0.000000000E+00  2.020554674E+02  2.020554674E+02  0.000000000E+00  0.00000E+00  9.000E+00
      21    -1     0     0   501   511  0.000000000E+00  0.000000000E+00 -6.994693513E+02  6.994693513E+02  0.000000000E+00  0.00000E+00  9.000E+00
      25     1     1     2     0     0 -7.227623558E+01  2.000976876E+02 -3.475493828E+01  2.491903781E+02  1.250000000E+02  0.00000E+00  9.000E+00
      25     1     1     2     0     0  1.097546465E+02 -2.223729237E+02 -1.127538070E+02  2.997235737E+02  1.250000000E+02  0.00000E+00  9.000E+00
      21     1     1     2   502   511 -3.747841095E+01  2.227523614E+01 -3.499051386E+02  3.526108669E+02  5.394796609E-06  0.00000E+00  9.000E+00
#rwgt            1           1   3.3864486210555551E-002           5      275385           0
</event>
<event>
      5   9999  3.79277E-02  2.69209E+01 -1.00000E+00  1.56380E-01
      21    -1     0     0   502   501  0.000000000E+00  0.000000000E+00  1.239976044E+03  1.239976044E+03  0.000000000E+00  0.00000E+00  9.000E+00
      21    -1     0     0   512   502  0.000000000E+00  0.000000000E+00 -1.991402461E+02  1.991402461E+02  0.000000000E+00  0.00000E+00  9.000E+00
      25     1     1     2     0     0 -2.131088184E+02 -3.568177297E+01  6.104579968E+02  6.595244676E+02  1.250000000E+02  0.00000E+00  9.000E+00
      25     1     1     2     0     0  1.883460462E+02  4.624308690E+01  5.817543646E+02  6.258400729E+02  1.250000000E+02  0.00000E+00  9.000E+00
      21     1     1     2   512   501  2.476277217E+01 -1.056131394E+01 -1.513765640E+02  1.537517491E+02  0.000000000E+00  0.00000E+00  9.000E+00
#rwgt            1           1   4.2983703030277917E-002           5      275487           0
</event>
<event>
      5   9999  3.79277E-02  2.99330E+01 -1.00000E+00  1.53107E-01
      21    -1     0     0   502   501  0.000000000E+00  0.000000000E+00  3.557418199E+02  3.557418199E+02  0.000000000E+00  0.00000E+00  9.000E+00
      21    -1     0     0   501   511  0.000000000E+00  0.000000000E+00 -3.993122797E+02  3.993122797E+02  0.000000000E+00  0.00000E+00  9.000E+00
      25     1     1     2     0     0  2.112649701E+02  2.241264800E+02 -1.484996657E+02  3.640641665E+02  1.250000000E+02  0.00000E+00  9.000E+00
      25     1     1     2     0     0 -2.365776560E+02 -2.081498315E+02  1.171328377E+02  3.586648036E+02  1.250000000E+02  0.00000E+00  9.000E+00
      21     1     1     2   502   511  2.531268592E+01 -1.597664850E+01 -1.220363192E+01  3.232512951E+01  0.000000000E+00  0.00000E+00  9.000E+00
#rwgt            1           1   3.7583412558373490E-002           5      275688           0
</event>
<event>
      5   9999  3.79277E-02  3.85091E+01 -1.00000E+00  1.45871E-01
      21    -1     0     0   502   501  0.000000000E+00  0.000000000E+00  5.282678739E+01  5.282678739E+01  0.000000000E+00  0.00000E+00  9.000E+00
      21    -1     0     0   501   512  0.000000000E+00  0.000000000E+00 -7.957281757E+02  7.957281757E+02  0.000000000E+00  0.00000E+00  9.000E+00
      25     1     1     2     0     0 -7.523949276E+01 -4.670474901E+01 -3.683935843E+02  3.989751218E+02  1.250000000E+02  0.00000E+00  9.000E+00
      25     1     1     2     0     0  8.992913857E+01  8.230205289E+01 -1.780170757E+02  2.493510720E+02  1.250000000E+02  0.00000E+00  9.000E+00
      21     1     1     2   502   512 -1.468964582E+01 -3.559730388E+01 -1.964907283E+02  2.002287693E+02  4.672030912E-06  0.00000E+00  9.000E+00
#rwgt            1           1   3.8860556312405425E-002           5      275848           0
</event>
<event>
      5   9999  3.79277E-02  2.74315E+01 -1.00000E+00  1.55790E-01
      21    -1     0     0   502   511  0.000000000E+00  0.000000000E+00  4.912670566E+02  4.912670566E+02  0.000000000E+00  0.00000E+00  9.000E+00
      21    -1     0     0   501   502  0.000000000E+00  0.000000000E+00 -1.359869893E+02  1.359869893E+02  0.000000000E+00  0.00000E+00  9.000E+00
      25     1     1     2     0     0 -1.858261962E+02 -7.915978311E+00  1.589993018E+02  2.747722983E+02  1.250000000E+02  0.00000E+00  9.000E+00
      25     1     1     2     0     0  2.105558163E+02 -3.955500921E+00  1.226213594E+02  2.738802577E+02  1.250000000E+02  0.00000E+00  9.000E+00
      21     1     1     2   501   511 -2.472962004E+01  1.187147923E+01  7.365940611E+01  7.860149003E+01  9.536743164E-07  0.00000E+00  9.000E+00
#rwgt            1           1   3.0885566684468926E-002           5      276125           0
</event>
<event>
      5   9999  3.79277E-02  6.37854E+00 -1.00000E+00  2.21423E-01
      21    -1     0     0   502   512  0.000000000E+00  0.000000000E+00  3.409598362E+02  3.409598362E+02  0.000000000E+00  0.00000E+00  9.000E+00
      21    -1     0     0   501   502  0.000000000E+00  0.000000000E+00 -2.346446382E+02  2.346446382E+02  0.000000000E+00  0.00000E+00  9.000E+00
      25     1     1     2     0     0  4.098843346E+01 -6.200192029E+01 -1.903889915E+02  2.395772483E+02  1.250000000E+02  0.00000E+00  9.000E+00
      25     1     1     2     0     0 -3.942412994E+01  6.818566264E+01  2.623997207E+02  3.011347871E+02  1.250000000E+02  0.00000E+00  9.000E+00
      21     1     1     2   501   512 -1.564303515E+00 -6.183742349E+00  3.430446892E+01  3.489243905E+01  0.000000000E+00  0.00000E+00  9.000E+00
#rwgt            1           1   3.7205796573716615E-002           5      276324           0
</event>
<event>
      5   9999  3.79277E-02  4.74854E+01 -1.00000E+00  1.40366E-01
      21    -1     0     0   502   511  0.000000000E+00  0.000000000E+00  8.194683514E+01  8.194683514E+01  0.000000000E+00  0.00000E+00  9.000E+00
      21    -1     0     0   501   502  0.000000000E+00  0.000000000E+00 -6.444278421E+02  6.444278421E+02  0.000000000E+00  0.00000E+00  9.000E+00
      25     1     1     2     0     0  6.962351770E+01 -1.115264439E+02 -2.487263834E+02  3.078561282E+02  1.250000000E+02  0.00000E+00  9.000E+00
      25     1     1     2     0     0 -9.521471312E+01  1.515258235E+02 -2.960791104E+02  3.678501820E+02  1.250000000E+02  0.00000E+00  9.000E+00
      21     1     1     2   501   511  2.559119542E+01 -3.999937959E+01 -1.767551319E+01  5.066836703E+01  8.259061849E-07  0.00000E+00  9.000E+00
#rwgt            1           1   3.9452586516667658E-002           5      276821           0
</event>
<event>
      5   9999  3.79277E-02  1.95826E+01 -1.00000E+00  1.67128E-01
      21    -1     0     0   502   501  0.000000000E+00  0.000000000E+00  8.413005599E+01  8.413005599E+01  0.000000000E+00  0.00000E+00  9.000E+00
      21    -1     0     0   501   512  0.000000000E+00  0.000000000E+00 -8.714740497E+02  8.714740497E+02  0.000000000E+00  0.00000E+00  9.000E+00
      25     1     1     2     0     0 -1.507283421E+02  9.517667364E+01 -2.351009711E+02  3.204295538E+02  1.250000000E+02  0.00000E+00  9.000E+00
      25     1     1     2     0     0  1.472407185E+02 -1.144462414E+02 -2.652144646E+02  3.474787527E+02  1.250000000E+02  0.00000E+00  9.000E+00
      21     1     1     2   502   512  3.487623678E+00  1.926956778E+01 -2.870285581E+02  2.876957992E+02  3.814697266E-06  0.00000E+00  9.000E+00
#rwgt            1           1   1.6256174194704518E-002           5      277022           0
</event>
<event>
      5   9999  3.79277E-02  3.35012E+01 -1.00000E+00  1.49783E-01
      21    -1     0     0   502   501  0.000000000E+00  0.000000000E+00  2.576134292E+02  2.576134292E+02  0.000000000E+00  0.00000E+00  9.000E+00
      21    -1     0     0   511   502  0.000000000E+00  0.000000000E+00 -1.612296333E+02  1.612296333E+02  0.000000000E+00  0.00000E+00  9.000E+00
      25     1     1     2     0     0  9.408366562E-01 -1.933207193E+01  1.617645482E+02  2.053469825E+02  1.250000000E+02  0.00000E+00  9.000E+00
      25     1     1     2     0     0  1.206723054E+01  5.020468765E+01  5.224988182E+00  1.353455918E+02  1.250000000E+02  0.00000E+00  9.000E+00
      21     1     1     2   511   501 -1.300806719E+01 -3.087261572E+01 -7.060574045E+01  7.815048815E+01  1.348699152E-06  0.00000E+00  9.000E+00
#rwgt            1           1  0.10737979424496787                5      277174           0
</event>
<event>
      5   9999  3.79277E-02  2.04986E+01 -1.00000E+00  1.65492E-01
      21    -1     0     0   502   512  0.000000000E+00  0.000000000E+00  1.210038064E+02  1.210038064E+02  0.000000000E+00  0.00000E+00  9.000E+00
      21    -1     0     0   501   502  0.000000000E+00  0.000000000E+00 -7.903531927E+02  7.903531927E+02  0.000000000E+00  0.00000E+00  9.000E+00
      25     1     1     2     0     0  1.504657353E+02  2.275858905E+02 -2.493729046E+02  3.901885706E+02  1.250000000E+02  0.00000E+00  9.000E+00
      25     1     1     2     0     0 -1.309894831E+02 -2.211931739E+02 -4.052832496E+02  4.959477566E+02  1.250000000E+02  0.00000E+00  9.000E+00
      21     1     1     2   501   512 -1.947625218E+01 -6.392716601E+00 -1.469323208E+01  2.522067195E+01  5.591411304E-07  0.00000E+00  9.000E+00
#rwgt            1           1   2.0984076069999229E-002           5      277445           0
</event>
<event>
      5   9999  3.79277E-02  5.45095E+01 -1.00000E+00  1.36969E-01
      21    -1     0     0   502   501  0.000000000E+00  0.000000000E+00  9.270781038E+02  9.270781038E+02  0.000000000E+00  0.00000E+00  9.000E+00
      21    -1     0     0   511   502  0.000000000E+00  0.000000000E+00 -6.122939457E+01  6.122939457E+01  0.000000000E+00  0.00000E+00  9.000E+00
      25     1     1     2     0     0  1.044350926E+02 -9.174526365E+01  5.614905772E+02  5.917943479E+02  1.250000000E+02  0.00000E+00  9.000E+00
      25     1     1     2     0     0 -5.210637002E+01  1.070091415E+02  2.941586304E+02  3.410576637E+02  1.250000000E+02  0.00000E+00  9.000E+00
      21     1     1     2   511   501 -5.232872260E+01 -1.526387788E+01  1.019950172E+01  5.545548676E+01  1.599360450E-06  0.00000E+00  9.000E+00
#rwgt            1           1   4.1147486393750182E-002           5      277690           0
</event>
<event>
      5   9999  3.79277E-02  4.42559E+01 -1.00000E+00  1.42168E-01
      21    -1     0     0   502   501  0.000000000E+00  0.000000000E+00  2.400113309E+02  2.400113309E+02  0.000000000E+00  0.00000E+00  9.000E+00
      21    -1     0     0   512   502  0.000000000E+00  0.000000000E+00 -2.999053958E+02  2.999053958E+02  0.000000000E+00  0.00000E+00  9.000E+00
      25     1     1     2     0     0 -2.136031221E+02  6.455254560E+01  3.124984364E+01  2.576720351E+02  1.250000000E+02  0.00000E+00  9.000E+00
      25     1     1     2     0     0  1.696781242E+02 -6.995429965E+01 -8.401129470E+01  2.374177068E+02  1.250000000E+02  0.00000E+00  9.000E+00
      21     1     1     2   512   501  4.392499796E+01  5.401754044E+00 -7.132613778E+00  4.482698487E+01  2.064765462E-07  0.00000E+00  9.000E+00
#rwgt            1           1  0.27325344006051772                5      277895           0
</event>
<event>
      5   9999 -4.42499E-02  7.17107E+01 -1.00000E+00  1.30692E-01
      21    -1     0     0   502   501  0.000000000E+00  0.000000000E+00  1.148952078E+02  1.148952078E+02  0.000000000E+00  0.00000E+00  9.000E+00
       2    -1     0     0   501     0  0.000000000E+00  0.000000000E+00 -7.473163130E+02  7.473163130E+02  0.000000000E+00  0.00000E+00  9.000E+00
      25     1     1     2     0     0  1.841477734E+02  3.182617252E+01 -3.469713937E+02  4.134458317E+02  1.250000000E+02  0.00000E+00  9.000E+00
      25     1     1     2     0     0 -2.263283833E+02  2.616705439E+01 -1.626973118E+02  3.066018054E+02  1.250000000E+02  0.00000E+00  9.000E+00
       2     1     1     2   502     0  4.218060988E+01 -5.799322691E+01 -1.227523997E+02  1.421638837E+02  1.348699152E-06  0.00000E+00  9.000E+00
#rwgt            1           1 -0.56952766132769039                5      278042           0
</event>
<event>
      5   9999  3.79277E-02  3.57932E+01 -1.00000E+00  1.47898E-01
      21    -1     0     0   511   501  0.000000000E+00  0.000000000E+00  5.682364453E+02  5.682364453E+02  0.000000000E+00  0.00000E+00  9.000E+00
      21    -1     0     0   501   502  0.000000000E+00  0.000000000E+00 -1.002938721E+02  1.002938721E+02  0.000000000E+00  0.00000E+00  9.000E+00
      25     1     1     2     0     0 -9.984245921E+01  1.235415315E+02  1.385836329E+02  2.450743764E+02  1.250000000E+02  0.00000E+00  9.000E+00
      25     1     1     2     0     0  1.292033567E+02 -1.440132928E+02  2.866423785E+02  3.677256981E+02  1.250000000E+02  0.00000E+00  9.000E+00
      21     1     1     2   511   502 -2.936089752E+01  2.047176127E+01  4.271656177E+01  5.573024280E+01  6.743495762E-07  0.00000E+00  9.000E+00
#rwgt            1           1   3.7722398526037162E-002           5      278103           0
</event>
<event>
      5   9999  3.79277E-02  1.44221E+01 -1.00000E+00  1.79006E-01
      21    -1     0     0   502   501  0.000000000E+00  0.000000000E+00  5.266181226E+01  5.266181226E+01  0.000000000E+00  0.00000E+00  9.000E+00
       2    -1     0     0   501     0  0.000000000E+00  0.000000000E+00 -2.498553970E+03  2.498553970E+03  0.000000000E+00  0.00000E+00  9.000E+00
      25     1     1     2     0     0  1.093427751E+02  9.761519886E+01 -6.029296546E+02  6.329563475E+02  1.250000000E+02  0.00000E+00  9.000E+00
      25     1     1     2     0     0 -9.703107622E+01 -9.010386985E+01 -1.827526941E+02  2.579869848E+02  1.250000000E+02  0.00000E+00  9.000E+00
       2     1     1     2   502     0 -1.231169886E+01 -7.511329013E+00 -1.660209809E+03  1.660272450E+03  2.157918644E-05  0.00000E+00  9.000E+00
#rwgt            1           1   3.7028158212497136E-002           5      278255           0
</event>
<event>
      5   9999  3.79277E-02  3.71627E+01 -1.00000E+00  1.46850E-01
      21    -1     0     0   502   511  0.000000000E+00  0.000000000E+00  5.254283091E+02  5.254283091E+02  0.000000000E+00  0.00000E+00  9.000E+00
      21    -1     0     0   501   502  0.000000000E+00  0.000000000E+00 -7.209359256E+01  7.209359256E+01  0.000000000E+00  0.00000E+00  9.000E+00
      25     1     1     2     0     0 -5.856713069E+01  7.107294917E+01  1.629326797E+02  2.250633934E+02  1.250000000E+02  0.00000E+00  9.000E+00
      25     1     1     2     0     0  9.422686731E+01 -6.061131573E+01  1.432183716E+02  2.206556958E+02  1.250000000E+02  0.00000E+00  9.000E+00
      21     1     1     2   501   511 -3.565973662E+01 -1.046163344E+01  1.471836652E+02  1.518028126E+02  1.907348633E-06  0.00000E+00  9.000E+00
#rwgt            1           1   3.1125054040817654E-002           5      278541           0
</event>
<event>
      5   9999  3.79277E-02  1.26564E+02 -1.00000E+00  1.19395E-01
      21    -1     0     0   502   501  0.000000000E+00  0.000000000E+00  4.674776031E+02  4.674776031E+02  0.000000000E+00  0.00000E+00  9.000E+00
      21    -1     0     0   501   512  0.000000000E+00  0.000000000E+00 -1.872768142E+02  1.872768142E+02  0.000000000E+00  0.00000E+00  9.000E+00
      25     1     1     2     0     0 -1.004250561E+02 -1.443403746E+01  1.401645945E+02  2.134587709E+02  1.250000000E+02  0.00000E+00  9.000E+00
      25     1     1     2     0     0  1.312725661E+02  1.371810473E+02  1.985827582E+02  3.018463818E+02  1.250000000E+02  0.00000E+00  9.000E+00
      21     1     1     2   502   512 -3.084751003E+01 -1.227470098E+02 -5.854656370E+01  1.394492646E+02  3.162979880E-06  0.00000E+00  9.000E+00
#rwgt            1           1   4.4580739590580759E-002           5      278738           0
</event>
<event>
      5   9999  3.79277E-02  2.89578E+01 -1.00000E+00  1.54114E-01
      21    -1     0     0   502   501  0.000000000E+00  0.000000000E+00  7.521879517E+01  7.521879517E+01  0.000000000E+00  0.00000E+00  9.000E+00
      21    -1     0     0   501   511  0.000000000E+00  0.000000000E+00 -1.046962349E+03  1.046962349E+03  0.000000000E+00  0.00000E+00  9.000E+00
      25     1     1     2     0     0  1.450168939E+02  9.458203768E+01 -7.387790203E+02  7.690221728E+02  1.250000000E+02  0.00000E+00  9.000E+00
      25     1     1     2     0     0 -1.250276267E+02 -1.155339579E+02 -1.341821560E+02  2.502196113E+02  1.250000000E+02  0.00000E+00  9.000E+00
      21     1     1     2   502   511 -1.998926720E+01  2.095192023E+01 -9.878237800E+01  1.029393606E+02  0.000000000E+00  0.00000E+00  9.000E+00
#rwgt            1           1   2.5034870333042799E-002           5      278814           0
</event>
<event>
      5   9999  3.79277E-02  5.06652E+01 -1.00000E+00  1.38749E-01
      21    -1     0     0   512   501  0.000000000E+00  0.000000000E+00  9.295804390E+02  9.295804390E+02  0.000000000E+00  0.00000E+00  9.000E+00
      21    -1     0     0   501   502  0.000000000E+00  0.000000000E+00 -1.120445634E+02  1.120445634E+02  0.000000000E+00  0.00000E+00  9.000E+00
      25     1     1     2     0     0 -7.615788295E+00 -3.385776666E+01 -5.543896280E+01  1.410773802E+02  1.250000000E+02  0.00000E+00  9.000E+00
      25     1     1     2     0     0  1.771371931E+01  8.350647739E+01  4.550983087E+02  4.796108612E+02  1.250000000E+02  0.00000E+00  9.000E+00
      21     1     1     2   512   502 -1.009793101E+01 -4.964871073E+01  4.178765298E+02  4.209367611E+02  5.394796609E-06  0.00000E+00  9.000E+00
#rwgt            2          11   6.5295552196664437E-004           5      279076           0
</event>
<event>
      5   9999  3.79277E-02  1.16105E+02 -1.00000E+00  1.20980E-01
      21    -1     0     0   502   511  0.000000000E+00  0.000000000E+00  3.524739532E+03  3.524739532E+03  0.000000000E+00  0.00000E+00  9.000E+00
      21    -1     0     0   501   502  0.000000000E+00  0.000000000E+00 -4.965784084E+01  4.965784084E+01  0.000000000E+00  0.00000E+00  9.000E+00
      25     1     1     2     0     0  2.557362738E+02  8.651931571E+01  1.279775280E+03  1.313901214E+03  1.250000000E+02  0.00000E+00  9.000E+00
      25     1     1     2     0     0 -3.716001468E+02 -7.903556946E+01  1.374065704E+03  1.431088694E+03  1.250000000E+02  0.00000E+00  9.000E+00
      21     1     1     2   501   511  1.158638730E+02 -7.483746244E+00  8.212407072E+02  8.294074648E+02  1.078959322E-05  0.00000E+00  9.000E+00
#rwgt            1           1   7.3754016385796081E-002           5      279261           0
</event>
<event>
      5   9999  3.79277E-02  3.43843E+01 -1.00000E+00  1.49036E-01
      21    -1     0     0   512   501  0.000000000E+00  0.000000000E+00  5.228850431E+01  5.228850431E+01  0.000000000E+00  0.00000E+00  9.000E+00
      21    -1     0     0   501   502  0.000000000E+00  0.000000000E+00 -1.198757661E+03  1.198757661E+03  0.000000000E+00  0.00000E+00  9.000E+00
      25     1     1     2     0     0  9.999048750E+01 -1.987800963E+01 -1.293046391E+02  2.067315229E+02  1.250000000E+02  0.00000E+00  9.000E+00
      25     1     1     2     0     0 -1.324953614E+02  8.665695378E+00 -9.633139570E+02  9.804228143E+02  1.250000000E+02  0.00000E+00  9.000E+00
      21     1     1     2   512   502  3.250487390E+01  1.121231425E+01 -5.385056010E+01  6.389182766E+01  0.000000000E+00  0.00000E+00  9.000E+00
#rwgt            1           1   1.4050176288300327E-002           5      279337           0
</event>
<event>
      5   9999  3.79277E-02  4.68233E+00 -1.00000E+00  2.48329E-01
      21    -1     0     0   502   511  0.000000000E+00  0.000000000E+00  2.915294750E+02  2.915294750E+02  0.000000000E+00  0.00000E+00  9.000E+00
      21    -1     0     0   501   502  0.000000000E+00  0.000000000E+00 -1.415739594E+02  1.415739594E+02  0.000000000E+00  0.00000E+00  9.000E+00
      25     1     1     2     0     0  4.717919988E+01  1.405633201E+02  1.110065136E+02  2.234532836E+02  1.250000000E+02  0.00000E+00  9.000E+00
      25     1     1     2     0     0 -4.551538604E+01 -1.449400664E+02  2.927188360E+01  1.988997646E+02  1.250000000E+02  0.00000E+00  9.000E+00
      21     1     1     2   501   511 -1.663813832E+00  4.376746228E+00  9.677118332E+00  1.075038619E+01  2.064765462E-07  0.00000E+00  9.000E+00
#rwgt            1           1   4.0916541629904130E-002           5      279461           0
</event>
<event>
      5   9999  3.79277E-02  5.96743E+01 -1.00000E+00  1.34830E-01
      21    -1     0     0   502   501  0.000000000E+00  0.000000000E+00  4.188870033E+02  4.188870033E+02  0.000000000E+00  0.00000E+00  9.000E+00
      21    -1     0     0   512   502  0.000000000E+00  0.000000000E+00 -2.355492199E+02  2.355492199E+02  0.000000000E+00  0.00000E+00  9.000E+00
      25     1     1     2     0     0  2.161185021E+02  4.159154123E+01 -4.391293056E+01  2.568859839E+02  1.250000000E+02  0.00000E+00  9.000E+00
      25     1     1     2     0     0 -1.848782567E+02 -9.243509123E+01  2.354423471E+02  3.373163422E+02  1.250000000E+02  0.00000E+00  9.000E+00
      21     1     1     2   512   501 -3.124024535E+01  5.084355000E+01 -8.191633130E+00  6.023389710E+01  5.196212463E-07  0.00000E+00  9.000E+00
#rwgt            1           1   4.1092162019414097E-002           5      279807           0
</event>
<event>
      5   9999 -3.79277E-02  9.15307E+01 -1.00000E+00  1.25582E-01
      21    -1     0     0   511   501  0.000000000E+00  0.000000000E+00  1.686077318E+02  1.686077318E+02  0.000000000E+00  0.00000E+00  9.000E+00
      21    -1     0     0   501   502  0.000000000E+00  0.000000000E+00 -6.069019714E+02  6.069019714E+02  0.000000000E+00  0.00000E+00  9.000E+00
      25     1     1     2     0     0  1.265914978E+02  1.362622785E+02 -2.418943406E+02  3.297433666E+02  1.250000000E+02  0.00000E+00  9.000E+00
      25     1     1     2     0     0 -1.745566604E+02 -5.830576024E+01 -2.539730529E+02  3.376342710E+02  1.250000000E+02  0.00000E+00  9.000E+00
      21     1     1     2   511   502  4.796516259E+01 -7.795651826E+01  5.757315381E+01  1.081320656E+02  2.861022949E-06  0.00000E+00  9.000E+00
#rwgt            1           1  -8.6924403414296234E-002           5      279891           0
</event>
<event>
      5   9999  3.79277E-02  9.91371E+01 -1.00000E+00  1.23997E-01
      21    -1     0     0   502   501  0.000000000E+00  0.000000000E+00  1.392304512E+02  1.392304512E+02  0.000000000E+00  0.00000E+00  9.000E+00
      21    -1     0     0   512   502  0.000000000E+00  0.000000000E+00 -6.538918220E+02  6.538918220E+02  0.000000000E+00  0.00000E+00  9.000E+00
      25     1     1     2     0     0 -1.686904160E+02  7.304933388E+01 -8.230288072E+00  2.224531395E+02  1.250000000E+02  0.00000E+00  9.000E+00
      25     1     1     2     0     0  6.972652816E+01 -6.719138087E+01 -2.507436220E+02  2.964352111E+02  1.250000000E+02  0.00000E+00  9.000E+00
      21     1     1     2   512   501  9.896388784E+01 -5.857953009E+00 -2.556874607E+02  2.742339225E+02  2.697398305E-06  0.00000E+00  9.000E+00
#rwgt            1           1   3.8420719844226237E-002           5      280136           0
</event>
<event>
      5   9999  3.79277E-02  7.21172E+01 -1.00000E+00  1.30569E-01
      21    -1     0     0   502   501  0.000000000E+00  0.000000000E+00  3.049184097E+02  3.049184097E+02  0.000000000E+00  0.00000E+00  9.000E+00
      21    -1     0     0   511   502  0.000000000E+00  0.000000000E+00 -8.124543117E+02  8.124543117E+02  0.000000000E+00  0.00000E+00  9.000E+00
      25     1     1     2     0     0  1.256916803E+02 -1.483336508E+02 -6.066071062E+01  2.389686010E+02  1.250000000E+02  0.00000E+00  9.000E+00
      25     1     1     2     0     0 -1.741106323E+02  9.488748425E+01  1.492826710E+02  2.779000950E+02  1.250000000E+02  0.00000E+00  9.000E+00
      21     1     1     2   511   501  4.841895197E+01  5.344616657E+01 -5.961578624E+02  6.005040254E+02  1.321449896E-05  0.00000E+00  9.000E+00
#rwgt            1           1   4.7452407189650582E-002           5      280203           0
</event>
<event>
      5   9999  3.79277E-02  4.41817E+01 -1.00000E+00  1.42212E-01
      21    -1     0     0   502   501  0.000000000E+00  0.000000000E+00  2.518994914E+02  2.518994914E+02  0.000000000E+00  0.00000E+00  9.000E+00
      21    -1     0     0   512   502  0.000000000E+00  0.000000000E+00 -2.394006931E+02  2.394006931E+02  0.000000000E+00  0.00000E+00  9.000E+00
      25     1     1     2     0     0 -4.816028790E+01  9.688484368E+00 -1.634171439E+02  2.115264593E+02  1.250000000E+02  0.00000E+00  9.000E+00
      25     1     1     2     0     0  3.481049438E+01 -5.180506181E+01  1.877532104E+02  2.340337646E+02  1.250000000E+02  0.00000E+00  9.000E+00
      21     1     1     2   512   501  1.334979352E+01  4.211657745E+01 -1.183726829E+01  4.573996068E+01  4.460403188E-07  0.00000E+00  9.000E+00
#rwgt            1           1   2.1330095336952268E-002           5      280409           0
</event>
<event>
      5   9999  3.79277E-02  1.01630E+01 -1.00000E+00  1.94949E-01
      21    -1     0     0   502   511  0.000000000E+00  0.000000000E+00  3.181561094E+02  3.181561094E+02  0.000000000E+00  0.00000E+00  9.000E+00
      21    -1     0     0   501   502  0.000000000E+00  0.000000000E+00 -2.378459503E+02  2.378459503E+02  0.000000000E+00  0.00000E+00  9.000E+00
      25     1     1     2     0     0  5.023994714E+00  7.880927561E+01  1.329320086E+02  1.988267118E+02  1.250000000E+02  0.00000E+00  9.000E+00
      25     1     1     2     0     0 -1.188228553E+01 -7.130923952E+01 -1.792287946E+02  2.301611548E+02  1.250000000E+02  0.00000E+00  9.000E+00
      21     1     1     2   501   511  6.858290815E+00 -7.500036091E+00  1.266069452E+02  1.270141931E+02  1.348699152E-06  0.00000E+00  9.000E+00
#rwgt            1           1   5.3287537361889029E-002           5      280534           0
</event>
<event>
      5   9999  3.79277E-02  9.92003E+01 -1.00000E+00  1.23985E-01
      21    -1     0     0   512   501  0.000000000E+00  0.000000000E+00  2.663328479E+02  2.663328479E+02  0.000000000E+00  0.00000E+00  9.000E+00
      21    -1     0     0   501   502  0.000000000E+00  0.000000000E+00 -6.513141416E+02  6.513141416E+02  0.000000000E+00  0.00000E+00  9.000E+00
      25     1     1     2     0     0  1.484020781E+02  1.295777066E+02 -1.456991786E+02  2.750760067E+02  1.250000000E+02  0.00000E+00  9.000E+00
      25     1     1     2     0     0 -5.127211265E+01 -1.094167001E+02 -4.098802071E+02  4.452276136E+02  1.250000000E+02  0.00000E+00  9.000E+00
      21     1     1     2   512   502 -9.712996544E+01 -2.016100644E+01  1.705980920E+02  1.973433692E+02  3.814697266E-06  0.00000E+00  9.000E+00
#rwgt            1           1  0.31078146418103880                5      280823           0
</event>
<event>
      5   9999  3.79277E-02  4.22304E+01 -1.00000E+00  1.43394E-01
       2    -1     0     0   502     0  0.000000000E+00  0.000000000E+00  1.502291287E+03  1.502291287E+03  0.000000000E+00  0.00000E+00  9.000E+00
      21    -1     0     0   501   502  0.000000000E+00  0.000000000E+00 -2.155395885E+02  2.155395885E+02  0.000000000E+00  0.00000E+00  9.000E+00
      25     1     1     2     0     0  1.252469517E+01  5.451552622E+01 -1.625567422E+02  2.125523583E+02  1.250000000E+02  0.00000E+00  9.000E+00
      25     1     1     2     0     0 -5.211785644E+01 -6.920531267E+01  1.816298417E+02  2.368966983E+02  1.250000000E+02  0.00000E+00  9.000E+00
       2     1     1     2   501     0  3.959316127E+01  1.468978645E+01  1.267678599E+03  1.268381818E+03  2.157918644E-05  0.00000E+00  9.000E+00
#rwgt            1           1   4.1819747953225059E-002           5      280903           0
</event>
<event>
      5   9999  3.79277E-02  3.08791E+01 -1.00000E+00  1.52174E-01
      21    -1     0     0   502   511  0.000000000E+00  0.000000000E+00  2.291156462E+02  2.291156462E+02  0.000000000E+00  0.00000E+00  9.000E+00
      21    -1     0     0   501   502  0.000000000E+00  0.000000000E+00 -4.652991699E+02  4.652991699E+02  0.000000000E+00  0.00000E+00  9.000E+00
      25     1     1     2     0     0  2.120055827E+02  4.365807105E+01 -1.897578831E+02  3.138239132E+02  1.250000000E+02  0.00000E+00  9.000E+00
      25     1     1     2     0     0 -1.918982944E+02 -2.022268663E+01 -1.486660176E+02  2.737891474E+02  1.250000000E+02  0.00000E+00  9.000E+00
      21     1     1     2   501   511 -2.010728827E+01 -2.343538442E+01  1.022403770E+02  1.068017555E+02  1.907348633E-06  0.00000E+00  9.000E+00
#rwgt            1           1   3.8494961605728087E-002           5      281018           0
</event>
<event>
      5   9999  3.79277E-02  7.67417E+01 -1.00000E+00  1.29230E-01
      21    -1     0     0   502   512  0.000000000E+00  0.000000000E+00  2.586892681E+02  2.586892681E+02  0.000000000E+00  0.00000E+00  9.000E+00
      21    -1     0     0   501   502  0.000000000E+00  0.000000000E+00 -4.669407951E+02  4.669407951E+02  0.000000000E+00  0.00000E+00  9.000E+00
      25     1     1     2     0     0  1.793958188E+02 -1.347299475E+02 -1.193473650E+02  2.832027756E+02  1.250000000E+02  0.00000E+00  9.000E+00
      25     1     1     2     0     0 -1.841831251E+02  5.813766985E+01 -2.017276716E+02  3.059778844E+02  1.250000000E+02  0.00000E+00  9.000E+00
      21     1     1     2   501   512  4.787306302E+00  7.659227768E+01  1.128235097E+02  1.364494032E+02  3.015782986E-06  0.00000E+00  9.000E+00
#rwgt            1           1   3.8315538897785988E-002           5      281197           0
</event>
<event>
      5   9999  3.79277E-02  2.97139E+02 -1.00000E+00  1.05727E-01
      21    -1     0     0   502   501  0.000000000E+00  0.000000000E+00  4.191413422E+02  4.191413422E+02  0.000000000E+00  0.00000E+00  9.000E+00
       2    -1     0     0   501     0  0.000000000E+00  0.000000000E+00 -8.210825292E+02  8.210825292E+02  0.000000000E+00  0.00000E+00  9.000E+00
      25     1     1     2     0     0  1.988237699E+02 -2.416800324E+02 -9.640241900E+01  3.505118485E+02  1.250000000E+02  0.00000E+00  9.000E+00
      25     1     1     2     0     0 -1.404614455E+02 -4.967058318E+01  2.152656773E+02  2.901049747E+02  1.250000000E+02  0.00000E+00  9.000E+00
       2     1     1     2   502     0 -5.836232438E+01  2.913506156E+02 -5.208044453E+02  5.996070483E+02  7.629394531E-06  0.00000E+00  9.000E+00
#rwgt            2          13   3.9248597129827091E-004           5      281346           0
</event>
<event>
      5   9999  3.79277E-02  3.28633E+01 -1.00000E+00  1.50340E-01
      21    -1     0     0   502   501  0.000000000E+00  0.000000000E+00  3.233734298E+02  3.233734298E+02  0.000000000E+00  0.00000E+00  9.000E+00
      21    -1     0     0   511   502  0.000000000E+00  0.000000000E+00 -2.395533195E+02  2.395533195E+02  0.000000000E+00  0.00000E+00  9.000E+00
      25     1     1     2     0     0  6.487203366E+01  1.490024910E+02  8.479731107E+01  2.218686707E+02  1.250000000E+02  0.00000E+00  9.000E+00
      25     1     1     2     0     0 -4.581495701E+01 -1.222289704E+02  1.191787459E+02  2.164890412E+02  1.250000000E+02  0.00000E+00  9.000E+00
      21     1     1     2   511   501 -1.905707665E+01 -2.677352063E+01 -1.201559466E+02  1.245690374E+02  1.348699152E-06  0.00000E+00  9.000E+00
#rwgt            1           1   4.9893769400243086E-002           5      281500           0
</event>
<event>
      5   9999  3.79277E-02  2.96286E+01 -1.00000E+00  1.53417E-01
      21    -1     0     0   502   501  0.000000000E+00  0.000000000E+00  1.656713678E+02  1.656713678E+02  0.000000000E+00  0.00000E+00  9.000E+00
      21    -1     0     0   501   512  0.000000000E+00  0.000000000E+00 -2.668900388E+02  2.668900388E+02  0.000000000E+00  0.00000E+00  9.000E+00
      25     1     1     2     0     0 -5.549418293E+01  2.194695498E+01 -6.574187098E+01  1.533240580E+02  1.250000000E+02  0.00000E+00  9.000E+00
      25     1     1     2     0     0  4.392025537E+01 -4.922140139E+01  7.836024399E+01  1.616077443E+02  1.250000000E+02  0.00000E+00  9.000E+00
      21     1     1     2   502   512  1.157392756E+01  2.727444641E+01 -1.138370440E+02  1.176296043E+02  1.348699152E-06  0.00000E+00  9.000E+00
#rwgt            1           1   3.6848551758129636E-002           5      281626           0
</event>
<event>
      5   9999  3.79277E-02  2.31229E+01 -1.00000E+00  1.61332E-01
      21    -1     0     0   511   501  0.000000000E+00  0.000000000E+00  8.883826256E+02  8.883826256E+02  0.000000000E+00  0.00000E+00  9.000E+00
      21    -1     0     0   501   502  0.000000000E+00  0.000000000E+00 -5.507896986E+01  5.507896986E+01  0.000000000E+00  0.00000E+00  9.000E+00
      25     1     1     2     0     0 -7.805533043E+01  7.191601896E+01  3.568233125E+02  3.926988983E+02  1.250000000E+02  0.00000E+00  9.000E+00
      25     1     1     2     0     0  7.373029643E+01 -9.463080263E+01  1.677113143E+02  2.411290741E+02  1.250000000E+02  0.00000E+00  9.000E+00
      21     1     1     2   511   502  4.325034004E+00  2.271478367E+01  3.087690289E+02  3.096336230E+02  0.000000000E+00  0.00000E+00  9.000E+00
#rwgt            1           1   4.1698417139129695E-002           5      281842           0
</event>
<event>
      5   9999  3.79277E-02  3.16918E+01 -1.00000E+00  1.51403E-01
      21    -1     0     0   502   501  0.000000000E+00  0.000000000E+00  5.058307524E+02  5.058307524E+02  0.000000000E+00  0.00000E+00  9.000E+00
      21    -1     0     0   501   512  0.000000000E+00  0.000000000E+00 -8.331662176E+02  8.331662176E+02  0.000000000E+00  0.00000E+00  9.000E+00
      25     1     1     2     0     0 -1.791522676E+02  1.903323025E+01  1.935556987E+02  2.924835164E+02  1.250000000E+02  0.00000E+00  9.000E+00
      25     1     1     2     0     0  1.726160569E+02  1.197719673E+01  2.190723296E+02  3.058716102E+02  1.250000000E+02  0.00000E+00  9.000E+00
      21     1     1     2   502   512  6.536210743E+00 -3.101042698E+01 -7.399634935E+02  7.406418435E+02  0.000000000E+00  0.00000E+00  9.000E+00
#rwgt            1           1   2.0266434416963418E-002           5      282053           0
</event>
<event>
      5   9999  3.79277E-02  9.31006E+01 -1.00000E+00  1.25241E-01
      21    -1     0     0   502   511  0.000000000E+00  0.000000000E+00  6.619401240E+02  6.619401240E+02  0.000000000E+00  0.00000E+00  9.000E+00
      21    -1     0     0   501   502  0.000000000E+00  0.000000000E+00 -1.768196896E+02  1.768196896E+02  0.000000000E+00  0.00000E+00  9.000E+00
      25     1     1     2     0     0 -6.898449344E+00  1.772664313E+02 -4.484962066E+01  2.216020414E+02  1.250000000E+02  0.00000E+00  9.000E+00
      25     1     1     2     0     0  4.572121453E+01 -9.264663952E+01  1.339355082E+02  2.103272442E+02  1.250000000E+02  0.00000E+00  9.000E+00
      21     1     1     2   501   511 -3.882276519E+01 -8.461979176E+01  3.960345468E+02  4.068305280E+02  0.000000000E+00  0.00000E+00  9.000E+00
#rwgt            1           1   3.9004776134464104E-002           5      282239           0
</event>
<event>
      5   9999  3.79277E-02  7.05568E+01 -1.00000E+00  1.31047E-01
      21    -1     0     0   502   512  0.000000000E+00  0.000000000E+00  8.674702621E+02  8.674702621E+02  0.000000000E+00  0.00000E+00  9.000E+00
      21    -1     0     0   501   502  0.000000000E+00  0.000000000E+00 -4.314801789E+02  4.314801789E+02  0.000000000E+00  0.00000E+00  9.000E+00
      25     1     1     2     0     0  1.869841975E+00  1.262721197E+02 -1.945981091E+02  2.635176818E+02  1.250000000E+02  0.00000E+00  9.000E+00
      25     1     1     2     0     0 -7.141379627E+01 -1.381842029E+02 -1.512655675E+02  2.504018293E+02  1.250000000E+02  0.00000E+00  9.000E+00
      21     1     1     2   501   512  6.954395430E+01  1.191208318E+01  7.818537597E+02  7.850309299E+02  1.078959322E-05  0.00000E+00  9.000E+00
#rwgt            1           1   3.4794558539602893E-002           5      282293           0
</event>
<event>
      5   9999  3.79277E-02  9.49984E+01 -1.00000E+00  1.24839E-01
      21    -1     0     0   502   511  0.000000000E+00  0.000000000E+00  3.917217274E+02  3.917217274E+02  0.000000000E+00  0.00000E+00  9.000E+00
      21    -1     0     0   501   502  0.000000000E+00  0.000000000E+00 -5.454489066E+02  5.454489066E+02  0.000000000E+00  0.00000E+00  9.000E+00
      25     1     1     2     0     0  9.054584938E+01 -8.296671818E+01 -1.679010197E+02  2.426886474E+02  1.250000000E+02  0.00000E+00  9.000E+00
      25     1     1     2     0     0 -1.231481599E+02  1.721955114E+02 -2.874538879E+02  3.782479360E+02  1.250000000E+02  0.00000E+00  9.000E+00
      21     1     1     2   501   511  3.260231054E+01 -8.922879321E+01  3.016277284E+02  3.162340506E+02  5.394796609E-06  0.00000E+00  9.000E+00
#rwgt            1           1   3.2325512118950114E-002           5      282446           0
</event>
<event>
      5   9999  3.79277E-02  5.46896E+01 -1.00000E+00  1.36890E-01
      21    -1     0     0   502   501  0.000000000E+00  0.000000000E+00  1.685999056E+02  1.685999056E+02  0.000000000E+00  0.00000E+00  9.000E+00
      21    -1     0     0   512   502  0.000000000E+00  0.000000000E+00 -1.031319639E+03  1.031319639E+03  0.000000000E+00  0.00000E+00  9.000E+00
      25     1     1     2     0     0 -1.623814617E+02  2.179209281E+02 -1.621261884E+02  3.402457509E+02  1.250000000E+02  0.00000E+00  9.000E+00
      25     1     1     2     0     0  1.864524823E+02 -1.688135656E+02 -1.743231196E+02  3.305693545E+02  1.250000000E+02  0.00000E+00  9.000E+00
      21     1     1     2   512   501 -2.407102061E+01 -4.910736250E+01 -5.262704255E+02  5.291044395E+02  0.000000000E+00  0.00000E+00  9.000E+00
#rwgt            1           1   2.4926578306300250E-002           5      282509           0
</event>
<event>
      5   9999  3.79277E-02  1.70650E+01 -1.00000E+00  1.72264E-01
      21    -1     0     0   502   501  0.000000000E+00  0.000000000E+00  7.335362685E+02  7.335362685E+02  0.000000000E+00  0.00000E+00  9.000E+00
      21    -1     0     0   501   511  0.000000000E+00  0.000000000E+00 -1.473588798E+02  1.473588798E+02  0.000000000E+00  0.00000E+00  9.000E+00
      25     1     1     2     0     0  9.297777957E+01  2.322208013E+02  4.689262535E+02  5.459745408E+02  1.250000000E+02  0.00000E+00  9.000E+00
      25     1     1     2     0     0 -8.915208729E+01 -2.488514807E+02  1.225573932E+02  3.170496313E+02  1.250000000E+02  0.00000E+00  9.000E+00
      21     1     1     2   502   511 -3.825692275E+00  1.663067939E+01 -5.306257885E+00  1.787097622E+01  1.788139343E-07  0.00000E+00  9.000E+00
#rwgt            1           1   3.0858555957653095E-002           5      282635           0
</event>
<event>
      5   9999  3.79277E-02  1.79323E+01 -1.00000E+00  1.70377E-01
      21    -1     0     0   502   512  0.000000000E+00  0.000000000E+00  3.612403508E+01  3.612403508E+01  0.000000000E+00  0.00000E+00  9.000E+00
      21    -1     0     0   501   502  0.000000000E+00  0.000000000E+00 -1.588571186E+03  1.588571186E+03  0.000000000E+00  0.00000E+00  9.000E+00
      25     1     1     2     0     0  6.855354269E+01 -3.400531691E+01 -1.998806903E+02  2.478572979E+02  1.250000000E+02  0.00000E+00  9.000E+00
      25     1     1     2     0     0 -5.086816715E+01  3.697080922E+01 -1.351659281E+03  1.358882711E+03  1.250000000E+02  0.00000E+00  9.000E+00
      21     1     1     2   501   512 -1.768537555E+01 -2.965492307E+00 -9.071795057E-01  1.795521171E+01  8.353293787E-07  0.00000E+00  9.000E+00
#rwgt            1           1   4.9259258485148262E-002           5      282838           0
</event>
<event>
      5   9999  3.79277E-02  3.62526E+01 -1.00000E+00  1.47540E-01
      21    -1     0     0   502   501  0.000000000E+00  0.000000000E+00  1.014223393E+03  1.014223393E+03  0.000000000E+00  0.00000E+00  9.000E+00
      21    -1     0     0   511   502  0.000000000E+00  0.000000000E+00 -1.403607431E+02  1.403607431E+02  0.000000000E+00  0.00000E+00  9.000E+00
      25     1     1     2     0     0  7.426485437E+01  2.399522097E+02  7.810956945E+02  8.299565142E+02  1.250000000E+02  0.00000E+00  9.000E+00
      25     1     1     2     0     0 -9.897809092E+01 -2.134284669E+02  1.050190643E+02  2.863605714E+02  1.250000000E+02  0.00000E+00  9.000E+00
      21     1     1     2   511   501  2.471323655E+01 -2.652374277E+01 -1.225210880E+01  3.826705059E+01  5.057621821E-07  0.00000E+00  9.000E+00
#rwgt            1           1   3.2173079667970839E-002           5      282961           0
</event>
<event>
      5   9999 -3.79277E-02  2.69413E+01 -1.00000E+00  1.56356E-01
      21    -1     0     0   512   501  0.000000000E+00  0.000000000E+00  2.494152767E+03  2.494152767E+03  0.000000000E+00  0.00000E+00  9.000E+00
      21    -1     0     0   501   502  0.000000000E+00  0.000000000E+00 -2.336659409E+01  2.336659409E+01  0.000000000E+00  0.00000E+00  9.000E+00
      25     1     1     2     0     0  1.313677496E+02 -1.179998952E+02  1.103885771E+03  1.124886775E+03  1.250000000E+02  0.00000E+00  9.000E+00
      25     1     1     2     0     0 -1.570395504E+02  1.098272146E+02  1.052582401E+03  1.077162080E+03  1.250000000E+02  0.00000E+00  9.000E+00
      21     1     1     2   512   502  2.567180079E+01  8.172680646E+00  3.143180013E+02  3.154705058E+02  0.000000000E+00  0.00000E+00  9.000E+00
#rwgt            1           1 -0.63662654394039642                5      283089           0
</event>
<event>
      5   9999  3.79277E-02  3.89035E+01 -1.00000E+00  1.45593E-01
      21    -1     0     0   502   501  0.000000000E+00  0.000000000E+00  1.450280703E+03  1.450280703E+03  0.000000000E+00  0.00000E+00  9.000E+00
      21    -1     0     0   501   511  0.000000000E+00  0.000000000E+00 -4.602533271E+01  4.602533271E+01  0.000000000E+00  0.00000E+00  9.000E+00
      25     1     1     2     0     0  8.173712971E+01 -7.025313183E+01  1.819157565E+02  2.456314381E+02  1.250000000E+02  0.00000E+00  9.000E+00
      25     1     1     2     0     0 -1.086757579E+02  9.832074455E+01  1.168390000E+03  1.184161130E+03  1.250000000E+02  0.00000E+00  9.000E+00
      21     1     1     2   502   511  2.693862823E+01 -2.806761272E+01  5.394961351E+01  6.651346761E+01  9.536743164E-07  0.00000E+00  9.000E+00
#rwgt            1           1   3.2181877078155827E-002           5      283299           0
</event>
<event>
      5   9999  3.79277E-02  1.76901E+01 -1.00000E+00  1.70890E-01
      -2    -1     0     0     0   501  0.000000000E+00  0.000000000E+00  3.946268431E+02  3.946268431E+02  0.000000000E+00  0.00000E+00  9.000E+00
      21    -1     0     0   501   502  0.000000000E+00  0.000000000E+00 -1.770838117E+02  1.770838117E+02  0.000000000E+00  0.00000E+00  9.000E+00
      25     1     1     2     0     0  1.592847954E+01  6.491585409E+01  1.192876656E+02  1.852628720E+02  1.250000000E+02  0.00000E+00  9.000E+00
      25     1     1     2     0     0 -1.372447234E+01 -8.246813888E+01 -1.043708046E+02  1.830508671E+02  1.250000000E+02  0.00000E+00  9.000E+00
      -2     1     1     2     0   502 -2.204007203E+00  1.755228479E+01  2.026261705E+02  2.033969157E+02  2.697398305E-06  0.00000E+00  9.000E+00
#rwgt            1           1   3.0103412036317459E-002           5      283416           0
</event>
<event>
      5   9999  3.79277E-02  4.89462E+01 -1.00000E+00  1.39605E-01
      21    -1     0     0   502   511  0.000000000E+00  0.000000000E+00  1.720410216E+02  1.720410216E+02  0.000000000E+00  0.00000E+00  9.000E+00
      21    -1     0     0   501   502  0.000000000E+00  0.000000000E+00 -5.016410541E+02  5.016410541E+02  0.000000000E+00  0.00000E+00  9.000E+00
      25     1     1     2     0     0 -1.414492266E+02  2.618057997E+01  4.770189315E+00  1.906333161E+02  1.250000000E+02  0.00000E+00  9.000E+00
      25     1     1     2     0     0  1.594006152E+02 -7.171602434E+01 -3.662499451E+02  4.246360401E+02  1.250000000E+02  0.00000E+00  9.000E+00
      21     1     1     2   501   511 -1.795138852E+01  4.553544437E+01  3.187972330E+01  5.841271951E+01  1.469710828E-06  0.00000E+00  9.000E+00
#rwgt            1           1   4.1360891347413400E-002           5      283783           0
</event>
<event>
      5   9999  3.79277E-02  1.75210E+01 -1.00000E+00  1.71255E-01
      21    -1     0     0   512   501  0.000000000E+00  0.000000000E+00  2.237665704E+02  2.237665704E+02  0.000000000E+00  0.00000E+00  9.000E+00
      21    -1     0     0   501   502  0.000000000E+00  0.000000000E+00 -1.810165564E+02  1.810165564E+02  0.000000000E+00  0.00000E+00  9.000E+00
      25     1     1     2     0     0  6.331457081E+01 -1.195310071E+02  5.226743743E+01  1.914504676E+02  1.250000000E+02  0.00000E+00  9.000E+00
      25     1     1     2     0     0 -4.809439215E+01  1.282103871E+02 -2.840380620E+01  1.875706537E+02  1.250000000E+02  0.00000E+00  9.000E+00
      21     1     1     2   512   502 -1.522017866E+01 -8.679380024E+00  1.888638274E+01  2.576200553E+01  0.000000000E+00  0.00000E+00  9.000E+00
#rwgt            1           1   3.4474527073098941E-002           5      283929           0
</event>
<event>
      5   9999  3.79277E-02  3.77526E+01 -1.00000E+00  1.46415E-01
      21    -1     0     0   502   501  0.000000000E+00  0.000000000E+00  3.392925859E+02  3.392925859E+02  0.000000000E+00  0.00000E+00  9.000E+00
      21    -1     0     0   501   511  0.000000000E+00  0.000000000E+00 -4.433626784E+02  4.433626784E+02  0.000000000E+00  0.00000E+00  9.000E+00
      25     1     1     2     0     0 -2.710912082E+02  5.402795962E+01  1.076115243E+01  3.035626228E+02  1.250000000E+02  0.00000E+00  9.000E+00
      25     1     1     2     0     0  2.903673243E+02 -2.156735359E+01  4.031496347E+01  3.194192074E+02  1.250000000E+02  0.00000E+00  9.000E+00
      21     1     1     2   502   511 -1.927611613E+01 -3.246060603E+01 -1.551462084E+02  1.596734342E+02  2.697398305E-06  0.00000E+00  9.000E+00
#rwgt            1           1   3.9521447266971807E-002           5      284214           0
</event>
<event>
      5   9999  3.79277E-02  5.71957E+01 -1.00000E+00  1.35824E-01
      21    -1     0     0   502   512  0.000000000E+00  0.000000000E+00  8.387041516E+01  8.387041516E+01  0.000000000E+00  0.00000E+00  9.000E+00
      21    -1     0     0   501   502  0.000000000E+00  0.000000000E+00 -1.057491144E+03  1.057491144E+03  0.000000000E+00  0.00000E+00  9.000E+00
      25     1     1     2     0     0 -5.387196888E+01 -2.183841231E+02 -4.148599268E+02  4.881880510E+02  1.250000000E+02  0.00000E+00  9.000E+00
      25     1     1     2     0     0  3.055896930E+01  1.661553240E+02 -5.576836615E+02  5.959677077E+02  1.250000000E+02  0.00000E+00  9.000E+00
      21     1     1     2   501   512  2.331299958E+01  5.222879914E+01 -1.077140801E+00  5.720580076E+01  1.168957869E-06  0.00000E+00  9.000E+00
#rwgt            1           1   6.6996183438838175E-002           5      284347           0
</event>
<event>
      5   9999  3.79277E-02  4.92857E+01 -1.00000E+00  1.39433E-01
      21    -1     0     0   502   501  0.000000000E+00  0.000000000E+00  1.038500151E+03  1.038500151E+03  0.000000000E+00  0.00000E+00  9.000E+00
      21    -1     0     0   501   511  0.000000000E+00  0.000000000E+00 -6.261951290E+01  6.261951290E+01  0.000000000E+00  0.00000E+00  9.000E+00
      25     1     1     2     0     0 -1.372546680E+02 -8.589616747E+01  4.221018797E+02  4.690543596E+02  1.250000000E+02  0.00000E+00  9.000E+00
      25     1     1     2     0     0  9.934674128E+01  1.173932739E+02  5.476429654E+02  5.823991529E+02  1.250000000E+02  0.00000E+00  9.000E+00
      21     1     1     2   502   511  3.790792675E+01 -3.149710642E+01  6.135792913E+00  4.966615123E+01  1.335463315E-06  0.00000E+00  9.000E+00
#rwgt            1           1   3.4064559364457611E-002           5      284433           0
</event>
<event>
      5   9999  3.79277E-02  1.16938E+01 -1.00000E+00  1.88216E-01
      21    -1     0     0   502   512  0.000000000E+00  0.000000000E+00  7.810323328E+02  7.810323328E+02  0.000000000E+00  0.00000E+00  9.000E+00
      21    -1     0     0   501   502  0.000000000E+00  0.000000000E+00 -4.692908764E+01  4.692908764E+01  0.000000000E+00  0.00000E+00  9.000E+00
      25     1     1     2     0     0  4.660183983E+01  8.547822259E+01  1.739518434E+02  2.352923752E+02  1.250000000E+02  0.00000E+00  9.000E+00
      25     1     1     2     0     0 -4.029158308E+01 -9.532334918E+01  3.940657261E+02  4.261722059E+02  1.250000000E+02  0.00000E+00  9.000E+00
      21     1     1     2   501   512 -6.310256744E+00  9.845126590E+00  1.660856757E+02  1.664968394E+02  2.697398305E-06  0.00000E+00  9.000E+00
#rwgt            1           1   3.1997729927472802E-002           5      284622           0
</event>
<event>
      5   9999  3.79277E-02  5.62705E+01 -1.00000E+00  1.36210E-01
      21    -1     0     0   502   501  0.000000000E+00  0.000000000E+00  3.263789251E+02  3.263789251E+02  0.000000000E+00  0.00000E+00  9.000E+00
      21    -1     0     0   501   511  0.000000000E+00  0.000000000E+00 -2.455268982E+02  2.455268982E+02  0.000000000E+00  0.00000E+00  9.000E+00
      25     1     1     2     0     0  4.769123352E+01 -3.887571530E+01  2.473672692E+02  2.839037528E+02  1.250000000E+02  0.00000E+00  9.000E+00
      25     1     1     2     0     0 -6.470252409E+01 -1.476181621E+01 -3.623652028E+01  1.460904283E+02  1.250000000E+02  0.00000E+00  9.000E+00
      21     1     1     2   502   511  1.701129056E+01  5.363753151E+01 -1.302787220E+02  1.419116422E+02  1.907348633E-06  0.00000E+00  9.000E+00
#rwgt            1           1   4.3355008295919220E-002           5      284836           0
</event>
<event>
      5   9999  3.79277E-02  8.07401E+00 -1.00000E+00  2.07149E-01
      21    -1     0     0   512   501  0.000000000E+00  0.000000000E+00  5.940862593E+02  5.940862593E+02  0.000000000E+00  0.00000E+00  9.000E+00
      21    -1     0     0   501   502  0.000000000E+00  0.000000000E+00 -1.895243914E+02  1.895243914E+02  0.000000000E+00  0.00000E+00  9.000E+00
      25     1     1     2     0     0  1.275986464E+02  3.735726267E+01 -3.503732527E+00  1.825219323E+02  1.250000000E+02  0.00000E+00  9.000E+00
      25     1     1     2     0     0 -1.337551036E+02 -4.258102962E+01 -4.920834003E+00  1.880233667E+02  1.250000000E+02  0.00000E+00  9.000E+00
      21     1     1     2   512   502  6.156457212E+00  5.223766954E+00  4.129864344E+02  4.130653516E+02  5.394796609E-06  0.00000E+00  9.000E+00
#rwgt            1           1  0.17695938701529521                5      284916           0
</event>
<event>
      5   9999  3.79277E-02  8.75593E+01 -1.00000E+00  1.26480E-01
      21    -1     0     0   502   511  0.000000000E+00  0.000000000E+00  6.543747715E+02  6.543747715E+02  0.000000000E+00  0.00000E+00  9.000E+00
      21    -1     0     0   501   502  0.000000000E+00  0.000000000E+00 -1.529105025E+02  1.529105025E+02  0.000000000E+00  0.00000E+00  9.000E+00
      25     1     1     2     0     0 -2.074836208E+02 -7.578522022E+00  2.390199839E+02  3.403857218E+02  1.250000000E+02  0.00000E+00  9.000E+00
      25     1     1     2     0     0  1.601044177E+02 -6.605464992E+01  2.649683616E+01  2.152294674E+02  1.250000000E+02  0.00000E+00  9.000E+00
      21     1     1     2   501   511  4.737920316E+01  7.363317194E+01  2.359474489E+02  2.516700847E+02  2.697398305E-06  0.00000E+00  9.000E+00
#rwgt            2          11   1.6055405962549381E-003           5      285280           0
</event>
<event>
      5   9999  3.79277E-02  3.49824E+01 -1.00000E+00  1.48545E-01
      21    -1     0     0   512   501  0.000000000E+00  0.000000000E+00  7.353631604E+01  7.353631604E+01  0.000000000E+00  0.00000E+00  9.000E+00
      21    -1     0     0   501   502  0.000000000E+00  0.000000000E+00 -5.936519041E+02  5.936519041E+02  0.000000000E+00  0.00000E+00  9.000E+00
      25     1     1     2     0     0  8.466444002E+01 -1.321581418E+02 -2.747527690E+02  3.402174686E+02  1.250000000E+02  0.00000E+00  9.000E+00
      25     1     1     2     0     0 -5.374012004E+01  1.158039982E+02 -2.217050640E+02  2.847397091E+02  1.250000000E+02  0.00000E+00  9.000E+00
      21     1     1     2   512   502 -3.092431998E+01  1.635414363E+01 -2.365775508E+01  4.223104256E+01  5.840038640E-07  0.00000E+00  9.000E+00
#rwgt            1           1   3.5881044747508577E-002           5      285390           0
</event>
<event>
      5   9999  3.79277E-02  5.10062E+01 -1.00000E+00  1.38584E-01
      21    -1     0     0   502   501  0.000000000E+00  0.000000000E+00  1.695486078E+01  1.695486078E+01  0.000000000E+00  0.00000E+00  9.000E+00
       2    -1     0     0   501     0  0.000000000E+00  0.000000000E+00 -3.379344372E+03  3.379344372E+03  0.000000000E+00  0.00000E+00  9.000E+00
      25     1     1     2     0     0  9.052567662E+01  7.221861201E+01 -1.734055327E+03  1.742407329E+03  1.250000000E+02  0.00000E+00  9.000E+00
      25     1     1     2     0     0 -1.373694382E+02 -9.240008123E+01 -8.924608331E+02  9.162529543E+02  1.250000000E+02  0.00000E+00  9.000E+00
       2     1     1     2   502     0  4.684376161E+01  2.018146922E+01 -7.358733515E+02  7.376389490E+02  1.078959322E-05  0.00000E+00  9.000E+00
#rwgt            1           1   5.1724928028539841E-002           5      285514           0
</event>
<event>
      5   9999  3.79277E-02  6.14368E+01 -1.00000E+00  1.34156E-01
      21    -1     0     0   502   501  0.000000000E+00  0.000000000E+00  9.577244225E+01  9.577244225E+01  0.000000000E+00  0.00000E+00  9.000E+00
       2    -1     0     0   501     0  0.000000000E+00  0.000000000E+00 -2.577820132E+03  2.577820132E+03  0.000000000E+00  0.00000E+00  9.000E+00
      25     1     1     2     0     0  6.052009051E+01  1.769633266E+02 -1.532871967E+02  2.722143732E+02  1.250000000E+02  0.00000E+00  9.000E+00
      25     1     1     2     0     0 -1.021712092E+02 -2.221259658E+02 -4.908329582E+02  5.624241225E+02  1.250000000E+02  0.00000E+00  9.000E+00
       2     1     1     2   502     0  4.165111871E+01  4.516263917E+01 -1.837927535E+03  1.838954078E+03  2.157918644E-05  0.00000E+00  9.000E+00
#rwgt            1           1   7.1260035584962786E-002           5      285628           0
</event>
<event>
      5   9999  3.79277E-02  1.36363E+01 -1.00000E+00  1.81374E-01
      21    -1     0     0   511   501  0.000000000E+00  0.000000000E+00  5.264368105E+02  5.264368105E+02  0.000000000E+00  0.00000E+00  9.000E+00
      21    -1     0     0   501   502  0.000000000E+00  0.000000000E+00 -9.044305178E+01  9.044305178E+01  0.000000000E+00  0.00000E+00  9.000E+00
      25     1     1     2     0     0  8.280495712E+01  1.231757103E+02  1.867354661E+02  2.693028979E+02  1.250000000E+02  0.00000E+00  9.000E+00
      25     1     1     2     0     0 -8.315509256E+01 -1.368075406E+02  1.635122423E+02  2.607533815E+02  1.250000000E+02  0.00000E+00  9.000E+00
      21     1     1     2   511   502  3.501354404E-01  1.363183030E+01  8.574605031E+01  8.682358283E+01  0.000000000E+00  0.00000E+00  9.000E+00
#rwgt            1           1   3.5704696662358912E-002           5      285774           0
</event>
<event>
      5   9999  3.79277E-02  2.06246E+01 -1.00000E+00  1.65275E-01
      21    -1     0     0   502   512  0.000000000E+00  0.000000000E+00  2.345902853E+02  2.345902853E+02  0.000000000E+00  0.00000E+00  9.000E+00
      21    -1     0     0   501   502  0.000000000E+00  0.000000000E+00 -1.730336848E+02  1.730336848E+02  0.000000000E+00  0.00000E+00  9.000E+00
      25     1     1     2     0     0  3.665749147E+01 -4.948513354E+01  9.905507979E+01  1.709662509E+02  1.250000000E+02  0.00000E+00  9.000E+00
      25     1     1     2     0     0 -5.614109006E+01  5.624987156E+01 -9.472848346E+01  1.758247867E+02  1.250000000E+02  0.00000E+00  9.000E+00
      21     1     1     2   501   512  1.948359859E+01 -6.764738027E+00  5.723000413E+01  6.083293242E+01  6.743495762E-07  0.00000E+00  9.000E+00
#rwgt            1           1   4.9639458679021808E-002           5      285976           0
</event>
<event>
      5   9999  3.79277E-02  3.40479E+01 -1.00000E+00  1.49317E-01
      21    -1     0     0   511   501  0.000000000E+00  0.000000000E+00  4.012894368E+01  4.012894368E+01  0.000000000E+00  0.00000E+00  9.000E+00
      21    -1     0     0   501   502  0.000000000E+00  0.000000000E+00 -1.020572294E+03  1.020572294E+03  0.000000000E+00  0.00000E+00  9.000E+00
      25     1     1     2     0     0  1.075569090E+02  4.139756445E+01 -5.458520278E+02  5.717181852E+02  1.250000000E+02  0.00000E+00  9.000E+00
      25     1     1     2     0     0 -1.203034708E+02 -7.296947360E+01 -3.884109789E+02  4.316081066E+02  1.250000000E+02  0.00000E+00  9.000E+00
      21     1     1     2   511   502  1.274656183E+01  3.157190914E+01 -4.618034382E+01  5.737494611E+01  0.000000000E+00  0.00000E+00  9.000E+00
#rwgt            1           1   1.7690483179506139E-002           5      286258           0
</event>
<event>
      5   9999  3.79277E-02  1.41030E+02 -1.00000E+00  1.17465E-01
      21    -1     0     0   512   501  0.000000000E+00  0.000000000E+00  3.900606824E+02  3.900606824E+02  0.000000000E+00  0.00000E+00  9.000E+00
      21    -1     0     0   501   502  0.000000000E+00  0.000000000E+00 -4.911339174E+02  4.911339174E+02  0.000000000E+00  0.00000E+00  9.000E+00
      25     1     1     2     0     0 -1.274581691E+02  4.649275243E+01  2.456667523E+02  3.072203023E+02  1.250000000E+02  0.00000E+00  9.000E+00
      25     1     1     2     0     0  8.469650496E+01 -1.808836147E+02 -3.622045252E+02  4.320989448E+02  1.250000000E+02  0.00000E+00  9.000E+00
      21     1     1     2   512   502  4.276166418E+01  1.343908623E+02  1.546453786E+01  1.418753528E+02  1.914784718E-06  0.00000E+00  9.000E+00
#rwgt            1           1   5.1501342405968015E-002           5      286480           0
</event>
<event>
      5   9999  3.79277E-02  6.63649E+01 -1.00000E+00  1.32404E-01
      21    -1     0     0   502   501  0.000000000E+00  0.000000000E+00  3.059817043E+03  3.059817043E+03  0.000000000E+00  0.00000E+00  9.000E+00
      21    -1     0     0   501   511  0.000000000E+00  0.000000000E+00 -2.549891552E+01  2.549891552E+01  0.000000000E+00  0.00000E+00  9.000E+00
      25     1     1     2     0     0 -4.968821622E+00  2.103688368E+02  1.008819912E+03  1.038085908E+03  1.250000000E+02  0.00000E+00  9.000E+00
      25     1     1     2     0     0  4.260427022E+01 -1.557074093E+02  1.816750472E+03  1.828186861E+03  1.250000000E+02  0.00000E+00  9.000E+00
      21     1     1     2   502   511 -3.763544860E+01 -5.466142752E+01  2.087477428E+02  2.190431893E+02  2.697398305E-06  0.00000E+00  9.000E+00
#rwgt            1           1   3.4818711265361561E-002           5      286544           0
</event>
<event>
      5   9999  3.79277E-02  6.62016E+01 -1.00000E+00  1.32460E-01
      21    -1     0     0   502   501  0.000000000E+00  0.000000000E+00  3.157591595E+02  3.157591595E+02  0.000000000E+00  0.00000E+00  9.000E+00
      21    -1     0     0   501   512  0.000000000E+00  0.000000000E+00 -4.020958812E+02  4.020958812E+02  0.000000000E+00  0.00000E+00  9.000E+00
      25     1     1     2     0     0 -1.256770278E+02  1.950440175E+02  1.021346191E+02  2.826541429E+02  1.250000000E+02  0.00000E+00  9.000E+00
      25     1     1     2     0     0  1.779152608E+02 -2.357112025E+02 -1.271806537E+02  3.449833760E+02  1.250000000E+02  0.00000E+00  9.000E+00
      21     1     1     2   502   512 -5.223823300E+01  4.066718500E+01 -6.129068702E+01  9.021752179E+01  9.536743164E-07  0.00000E+00  9.000E+00
#rwgt            1           1   3.3262077845410902E-002           5      286606           0
</event>
<event>
      5   9999  3.79277E-02  2.10261E+02 -1.00000E+00  1.10863E-01
      21    -1     0     0   502   501  0.000000000E+00  0.000000000E+00  9.439953566E+02  9.439953566E+02  0.000000000E+00  0.00000E+00  9.000E+00
      21    -1     0     0   511   502  0.000000000E+00  0.000000000E+00 -5.714509395E+02  5.714509395E+02  0.000000000E+00  0.00000E+00  9.000E+00
      25     1     1     2     0     0  3.511221943E+02  5.997013750E+02  2.918285526E+02  7.640140303E+02  1.250000000E+02  0.00000E+00  9.000E+00
      25     1     1     2     0     0 -3.433665723E+02 -3.895834919E+02  8.648587490E+01  5.410921426E+02  1.250000000E+02  0.00000E+00  9.000E+00
      21     1     1     2   511   501 -7.755621981E+00 -2.101178830E+02 -5.770010339E+00  2.103401233E+02  2.863505399E-06  0.00000E+00  9.000E+00
#rwgt            1           1   4.2533128305957291E-002           5      286666           0
</event>
<event>
      5   9999  3.79277E-02  1.11756E+01 -1.00000E+00  1.90338E-01
      21    -1     0     0   502   501  0.000000000E+00  0.000000000E+00  3.253362580E+02  3.253362580E+02  0.000000000E+00  0.00000E+00  9.000E+00
      21    -1     0     0   512   502  0.000000000E+00  0.000000000E+00 -1.855102360E+02  1.855102360E+02  0.000000000E+00  0.00000E+00  9.000E+00
      25     1     1     2     0     0  7.356984444E+01  6.507366884E+01  2.534023789E+02  2.991402180E+02  1.250000000E+02  0.00000E+00  9.000E+00
      25     1     1     2     0     0 -7.674967763E+01 -7.578731376E+01 -1.138084562E+02  2.005282889E+02  1.250000000E+02  0.00000E+00  9.000E+00
      21     1     1     2   512   501  3.179833185E+00  1.071364492E+01  2.320992792E-01  1.117798714E+01  2.664168646E-07  0.00000E+00  9.000E+00
#rwgt            1           1   3.9356641403637420E-002           5      286781           0
</event>
<event>
      5   9999  3.79277E-02  6.88970E+01 -1.00000E+00  1.31571E-01
      21    -1     0     0   502   511  0.000000000E+00  0.000000000E+00  7.525488847E+01  7.525488847E+01  0.000000000E+00  0.00000E+00  9.000E+00
      21    -1     0     0   501   502  0.000000000E+00  0.000000000E+00 -7.971191174E+02  7.971191174E+02  0.000000000E+00  0.00000E+00  9.000E+00
      25     1     1     2     0     0  7.022089933E+01  5.637572602E+01 -1.265507069E+02  1.993722112E+02  1.250000000E+02  0.00000E+00  9.000E+00
      25     1     1     2     0     0 -3.502649063E+01 -1.156053510E+02 -5.756949139E+02  6.013660168E+02  1.250000000E+02  0.00000E+00  9.000E+00
      21     1     1     2   501   511 -3.519440870E+01  5.922962499E+01 -1.961860807E+01  7.163577782E+01  1.581489940E-06  0.00000E+00  9.000E+00
#rwgt            1           1   4.7528799793016108E-002           5      287131           0
</event>
<event>
      5   9999  3.79277E-02  3.72489E+01 -1.00000E+00  1.46786E-01
      21    -1     0     0   512   501  0.000000000E+00  0.000000000E+00  5.830278653E+02  5.830278653E+02  0.000000000E+00  0.00000E+00  9.000E+00
      21    -1     0     0   501   502  0.000000000E+00  0.000000000E+00 -5.408344575E+01  5.408344575E+01  0.000000000E+00  0.00000E+00  9.000E+00
      25     1     1     2     0     0 -2.139730581E+01  9.569983955E+01  1.780472194E+02  2.386254729E+02  1.250000000E+02  0.00000E+00  9.000E+00
      25     1     1     2     0     0  4.812495496E+01 -6.975537232E+01  2.684156890E+02  3.079834498E+02  1.250000000E+02  0.00000E+00  9.000E+00
      21     1     1     2   512   502 -2.672764915E+01 -2.594446723E+01  8.248151124E+01  9.050238839E+01  1.348699152E-06  0.00000E+00  9.000E+00
#rwgt            1           1   2.3693542609219784E-002           5      287327           0
</event>
<event>
      5   9999  3.79277E-02  2.34106E+02 -1.00000E+00  1.09214E-01
      21    -1     0     0   502   501  0.000000000E+00  0.000000000E+00  7.657294765E+02  7.657294765E+02  0.000000000E+00  0.00000E+00  9.000E+00
      -3    -1     0     0     0   502  0.000000000E+00  0.000000000E+00 -1.190340910E+03  1.190340910E+03  0.000000000E+00  0.00000E+00  9.000E+00
      25     1     1     2     0     0  1.441067629E+02 -3.445139727E+02  1.417560121E+00  3.938066099E+02  1.250000000E+02  0.00000E+00  9.000E+00
      25     1     1     2     0     0  7.598473553E+01  2.647303760E+02  5.124363896E+02  5.950394150E+02  1.250000000E+02  0.00000E+00  9.000E+00
      -3     1     1     2     0   501 -2.200914985E+02  7.978359664E+01 -9.384653837E+02  9.672243620E+02  1.525878906E-05  0.00000E+00  9.000E+00
#rwgt            2           8   7.8750385019254045E-005           5      287458           0
</event>
<event>
      5   9999 -3.79277E-02  4.78054E+00 -1.00000E+00  2.46469E-01
      21    -1     0     0   502   511  0.000000000E+00  0.000000000E+00  1.740567437E+02  1.740567437E+02  0.000000000E+00  0.00000E+00  9.000E+00
      21    -1     0     0   501   502  0.000000000E+00  0.000000000E+00 -2.168966362E+02  2.168966362E+02  0.000000000E+00  0.00000E+00  9.000E+00
      25     1     1     2     0     0 -1.214931860E+02 -6.467082030E+01 -5.276297204E+01  1.932662424E+02  1.250000000E+02  0.00000E+00  9.000E+00
      25     1     1     2     0     0  1.253505537E+02  6.749468947E+01  3.255957046E+00  1.894832333E+02  1.250000000E+02  0.00000E+00  9.000E+00
      21     1     1     2   501   511 -3.857367722E+00 -2.823869167E+00  6.667122491E+00  8.203904261E+00  8.429369702E-08  0.00000E+00  9.000E+00
#rwgt            1           1  -3.9194395410409574E-002           5      287552           0
</event>
<event>
      5   9999  3.79277E-02  3.98711E+02 -1.00000E+00  1.01728E-01
       2    -1     0     0   502     0  0.000000000E+00  0.000000000E+00  2.047255688E+03  2.047255688E+03  0.000000000E+00  0.00000E+00  9.000E+00
      21    -1     0     0   501   502  0.000000000E+00  0.000000000E+00 -5.285525164E+02  5.285525164E+02  0.000000000E+00  0.00000E+00  9.000E+00
      25     1     1     2     0     0 -1.017156106E+02 -1.995921186E+01 -4.080984825E+02  4.392195430E+02  1.250000000E+02  0.00000E+00  9.000E+00
      25     1     1     2     0     0  7.854998498E+00 -3.675462656E+02  3.955886109E+02  5.543169738E+02  1.250000000E+02  0.00000E+00  9.000E+00
       2     1     1     2   501     0  9.386061215E+01  3.875054775E+02  1.531213044E+03  1.582271688E+03  0.000000000E+00  0.00000E+00  9.000E+00
#rwgt            1           1  0.19527060721351422                5      287944           0
</event>
<event>
      5   9999  3.79277E-02  2.08051E+01 -1.00000E+00  1.64967E-01
      21    -1     0     0   502   511  0.000000000E+00  0.000000000E+00  4.609507631E+02  4.609507631E+02  0.000000000E+00  0.00000E+00  9.000E+00
      21    -1     0     0   501   502  0.000000000E+00  0.000000000E+00 -7.224844645E+01  7.224844645E+01  0.000000000E+00  0.00000E+00  9.000E+00
      25     1     1     2     0     0 -2.699058049E+01  8.769009968E+01  7.917471534E+01  1.741025002E+02  1.250000000E+02  0.00000E+00  9.000E+00
      25     1     1     2     0     0  4.779072872E+01 -8.723845984E+01  2.570491499E+02  3.026446234E+02  1.250000000E+02  0.00000E+00  9.000E+00
      21     1     1     2   501   511 -2.080014823E+01 -4.516398412E-01  5.247845141E+01  5.645208594E+01  9.536743164E-07  0.00000E+00  9.000E+00
#rwgt            1           1   3.9686059975636241E-002           5      288048           0
</event>
<event>
      5   9999  3.79277E-02  3.98875E+01 -1.00000E+00  1.44916E-01
      21    -1     0     0   502   512  0.000000000E+00  0.000000000E+00  5.937017049E+02  5.937017049E+02  0.000000000E+00  0.00000E+00  9.000E+00
      21    -1     0     0   501   502  0.000000000E+00  0.000000000E+00 -2.113604800E+02  2.113604800E+02  0.000000000E+00  0.00000E+00  9.000E+00
      25     1     1     2     0     0  7.461005832E+01 -2.446930975E+02 -3.101074680E+01  2.864053756E+02  1.250000000E+02  0.00000E+00  9.000E+00
      25     1     1     2     0     0 -8.756820684E+01  2.069690971E+02  2.832154678E+02  3.825446369E+02  1.250000000E+02  0.00000E+00  9.000E+00
      21     1     1     2   501   512  1.295814852E+01  3.772400039E+01  1.301365038E+02  1.361121723E+02  1.907348633E-06  0.00000E+00  9.000E+00
#rwgt            1           1   3.9472938796260570E-002           5      288226           0
</event>
<event>
      5   9999  3.79277E-02  2.85534E+01 -1.00000E+00  1.54546E-01
      21    -1     0     0   502   501  0.000000000E+00  0.000000000E+00  2.780456483E+02  2.780456483E+02  0.000000000E+00  0.00000E+00  9.000E+00
      21    -1     0     0   511   502  0.000000000E+00  0.000000000E+00 -3.928228980E+02  3.928228980E+02  0.000000000E+00  0.00000E+00  9.000E+00
      25     1     1     2     0     0 -1.248920872E+02 -2.169406084E+02  1.371510729E+01  2.801327635E+02  1.250000000E+02  0.00000E+00  9.000E+00
      25     1     1     2     0     0  1.447885959E+02  1.964606866E+02 -1.598906712E+01  2.746655951E+02  1.250000000E+02  0.00000E+00  9.000E+00
      21     1     1     2   511   501 -1.989650862E+01  2.047992183E+01 -1.125032899E+02  1.160701877E+02  1.348699152E-06  0.00000E+00  9.000E+00
#rwgt            1           1   3.7917064804477464E-002           5      288434           0
</event>
<event>
      5   9999  3.79277E-02  8.97230E+01 -1.00000E+00  1.25984E-01
      21    -1     0     0   512   501  0.000000000E+00  0.000000000E+00  5.211088603E+02  5.211088603E+02  0.000000000E+00  0.00000E+00  9.000E+00
      21    -1     0     0   501   502  0.000000000E+00  0.000000000E+00 -1.498424960E+02  1.498424960E+02  0.000000000E+00  0.00000E+00  9.000E+00
      25     1     1     2     0     0 -1.536135415E+02  1.210277290E+02  2.695113082E+02  3.556770678E+02  1.250000000E+02  0.00000E+00  9.000E+00
      25     1     1     2     0     0  6.484420190E+01 -1.340743839E+02  2.282020891E+01  1.957714812E+02  1.250000000E+02  0.00000E+00  9.000E+00
      21     1     1     2   512   502  8.876933956E+01  1.304665486E+01  7.893484723E+01  1.195028073E+02  9.536743164E-07  0.00000E+00  9.000E+00
#rwgt            1           1   4.3920684154775742E-002           5      288737           0
</event>
<event>
      5   9999  3.79277E-02  4.90025E+01 -1.00000E+00  1.39577E-01
      21    -1     0     0   511   501  0.000000000E+00  0.000000000E+00  8.831779155E+02  8.831779155E+02  0.000000000E+00  0.00000E+00  9.000E+00
      21    -1     0     0   501   502  0.000000000E+00  0.000000000E+00 -1.209906811E+02  1.209906811E+02  0.000000000E+00  0.00000E+00  9.000E+00
      25     1     1     2     0     0  1.206802521E+02 -1.792744420E+02  2.332594244E+02  3.416694424E+02  1.250000000E+02  0.00000E+00  9.000E+00
      25     1     1     2     0     0 -1.694397548E+02  1.841482621E+02  2.374081423E+02  3.668896822E+02  1.250000000E+02  0.00000E+00  9.000E+00
      21     1     1     2   511   502  4.875950262E+01 -4.873820115E+00  2.915196677E+02  2.956094719E+02  3.814697266E-06  0.00000E+00  9.000E+00
#rwgt            1           1   3.6207855252755702E-002           5      288862           0
</event>
<event>
      5   9999  3.79277E-02  1.37634E+01 -1.00000E+00  1.80978E-01
      21    -1     0     0   502   512  0.000000000E+00  0.000000000E+00  1.277047721E+02  1.277047721E+02  0.000000000E+00  0.00000E+00  9.000E+00
      21    -1     0     0   501   502  0.000000000E+00  0.000000000E+00 -4.464538610E+02  4.464538610E+02  0.000000000E+00  0.00000E+00  9.000E+00
      25     1     1     2     0     0 -2.115502309E+01  1.173083341E+02 -1.234063999E+02  2.122802859E+02  1.250000000E+02  0.00000E+00  9.000E+00
      25     1     1     2     0     0  2.862755766E+01 -1.057501178E+02 -2.529367625E+02  3.026625684E+02  1.250000000E+02  0.00000E+00  9.000E+00
      21     1     1     2   501   512 -7.472534571E+00 -1.155821627E+01  5.759407359E+01  5.921577871E+01  9.536743164E-07  0.00000E+00  9.000E+00
#rwgt            1           1   3.8830606597303870E-002           5      289074           0
</event>
<event>
      5   9999  3.79277E-02  8.62514E+01 -1.00000E+00  1.26788E-01
      21    -1     0     0   502   501  0.000000000E+00  0.000000000E+00  1.044086850E+03  1.044086850E+03  0.000000000E+00  0.00000E+00  9.000E+00
      21    -1     0     0   511   502  0.000000000E+00  0.000000000E+00 -1.297029109E+02  1.297029109E+02  0.000000000E+00  0.00000E+00  9.000E+00
      25     1     1     2     0     0 -7.369742389E+01  1.539559824E+02  3.227338794E+02  3.858962447E+02  1.250000000E+02  0.00000E+00  9.000E+00
      25     1     1     2     0     0  1.303050122E+02 -8.888004360E+01  6.521768295E+02  6.825237544E+02  1.250000000E+02  0.00000E+00  9.000E+00
      21     1     1     2   511   501 -5.660758832E+01 -6.507593875E+01 -6.052676976E+01  1.053697619E+02  2.861022949E-06  0.00000E+00  9.000E+00
#rwgt            1           1   2.3104867218619311E-002           5      289301           0
</event>
<event>
      5   9999  3.79277E-02  6.94245E+01 -1.00000E+00  1.31403E-01
      21    -1     0     0   502   501  0.000000000E+00  0.000000000E+00  3.479949607E+02  3.479949607E+02  0.000000000E+00  0.00000E+00  9.000E+00
      21    -1     0     0   512   502  0.000000000E+00  0.000000000E+00 -8.836223009E+02  8.836223009E+02  0.000000000E+00  0.00000E+00  9.000E+00
      25     1     1     2     0     0 -3.965783084E+02 -7.068390031E+01  1.177015080E+02  4.378917828E+02  1.250000000E+02  0.00000E+00  9.000E+00
      25     1     1     2     0     0  3.588956486E+02  1.237633939E+01 -5.711627181E+02  6.861567684E+02  1.250000000E+02  0.00000E+00  9.000E+00
      21     1     1     2   512   501  3.768265983E+01  5.830756092E+01 -8.216613008E+01  1.075687103E+02  1.907348633E-06  0.00000E+00  9.000E+00
#rwgt            1           1   8.9219902571377324E-002           5      289417           0
</event>
<event>
      5   9999 -3.79277E-02  3.24427E+01 -1.00000E+00  1.50716E-01
      21    -1     0     0   502   501  0.000000000E+00  0.000000000E+00  2.388630065E+02  2.388630065E+02  0.000000000E+00  0.00000E+00  9.000E+00
       2    -1     0     0   501     0  0.000000000E+00  0.000000000E+00 -1.315890239E+03  1.315890239E+03  0.000000000E+00  0.00000E+00  9.000E+00
      25     1     1     2     0     0  8.640723633E+00  1.577344224E+02 -1.103447516E+02  2.296862519E+02  1.250000000E+02  0.00000E+00  9.000E+00
      25     1     1     2     0     0 -1.058314887E+01 -1.253499491E+02  1.350180049E+02  2.228889284E+02  1.250000000E+02  0.00000E+00  9.000E+00
       2     1     1     2   502     0  1.942425239E+00 -3.238447331E+01 -1.101700486E+03  1.102178066E+03  0.000000000E+00  0.00000E+00  9.000E+00
#rwgt            1           1  -6.5040091952051793E-002           5      289520           0
</event>
<event>
      5   9999  3.79277E-02  2.76654E+01 -1.00000E+00  1.55524E-01
      21    -1     0     0   502   501  0.000000000E+00  0.000000000E+00  1.285844113E+02  1.285844113E+02  0.000000000E+00  0.00000E+00  9.000E+00
       2    -1     0     0   501     0  0.000000000E+00  0.000000000E+00 -1.060168240E+03  1.060168240E+03  0.000000000E+00  0.00000E+00  9.000E+00
      25     1     1     2     0     0  5.138575016E+01 -8.230546123E+01 -1.204049009E+02  1.988391924E+02  1.250000000E+02  0.00000E+00  9.000E+00
      25     1     1     2     0     0 -2.801233196E+01  9.710611207E+01  1.666482695E+01  1.616075623E+02  1.250000000E+02  0.00000E+00  9.000E+00
       2     1     1     2   502     0 -2.337341820E+01 -1.480065084E+01 -8.278437545E+02  8.283058963E+02  1.078959322E-05  0.00000E+00  9.000E+00
#rwgt            1           1   4.4375557918333759E-002           5      289646           0
</event>
<event>
      5   9999  3.79277E-02  3.94401E+01 -1.00000E+00  1.45221E-01
      21    -1     0     0   502   501  0.000000000E+00  0.000000000E+00  2.364007173E+02  2.364007173E+02  0.000000000E+00  0.00000E+00  9.000E+00
      21    -1     0     0   511   502  0.000000000E+00  0.000000000E+00 -2.250150661E+02  2.250150661E+02  0.000000000E+00  0.00000E+00  9.000E+00
      25     1     1     2     0     0  3.772940875E+01 -1.541440564E+02  7.684317523E+01  2.161336901E+02  1.250000000E+02  0.00000E+00  9.000E+00
      25     1     1     2     0     0 -1.508333341E+01  1.218535552E+02 -7.754197566E+00  1.753879227E+02  1.250000000E+02  0.00000E+00  9.000E+00
      21     1     1     2   511   501 -2.264607534E+01  3.229050115E+01 -5.770332646E+01  6.989417056E+01  1.168007728E-06  0.00000E+00  9.000E+00
#rwgt            1           1   2.5768138398879464E-002           5      289760           0
</event>
<event>
      5   9999  3.79277E-02  3.70432E+00 -1.00000E+00  2.71585E-01
       1    -1     0     0   502     0  0.000000000E+00  0.000000000E+00  9.730194714E+02  9.730194714E+02  0.000000000E+00  0.00000E+00  9.000E+00
      21    -1     0     0   501   502  0.000000000E+00  0.000000000E+00 -4.581471015E+01  4.581471015E+01  0.000000000E+00  0.00000E+00  9.000E+00
      25     1     1     2     0     0  3.013710424E+01  4.836532599E+01  2.366532226E+02  2.736369814E+02  1.250000000E+02  0.00000E+00  9.000E+00
      25     1     1     2     0     0 -2.643855976E+01 -4.857216810E+01  1.436717944E+02  1.983049103E+02  1.250000000E+02  0.00000E+00  9.000E+00
       1     1     1     2   501     0 -3.698544481E+00  2.068421044E-01  5.468797443E+02  5.468922899E+02  0.000000000E+00  0.00000E+00  9.000E+00
#rwgt            1           1   3.7128274518700967E-002           5      289997           0
</event>
<event>
      5   9999  3.79277E-02  1.09810E+02 -1.00000E+00  1.22027E-01
      21    -1     0     0   502   501  0.000000000E+00  0.000000000E+00  9.942232844E+02  9.942232844E+02  0.000000000E+00  0.00000E+00  9.000E+00
       2    -1     0     0   501     0  0.000000000E+00  0.000000000E+00 -1.443949082E+02  1.443949082E+02  0.000000000E+00  0.00000E+00  9.000E+00
      25     1     1     2     0     0 -1.471412204E+02  2.760104860E+01  8.196646236E+02  8.425481896E+02  1.250000000E+02  0.00000E+00  9.000E+00
      25     1     1     2     0     0  3.787582477E+01 -1.668229876E+01  1.005182542E+02  1.656556568E+02  1.250000000E+02  0.00000E+00  9.000E+00
       2     1     1     2   502     0  1.092653956E+02 -1.091874984E+01 -7.035450164E+01  1.304143462E+02  9.536743164E-07  0.00000E+00  9.000E+00
#rwgt            1           1   5.5454846142088052E-002           5      290697           0
</event>
<event>
      5   9999  3.79277E-02  4.93981E+01 -1.00000E+00  1.39376E-01
      21    -1     0     0   502   511  0.000000000E+00  0.000000000E+00  1.188736507E+02  1.188736507E+02  0.000000000E+00  0.00000E+00  9.000E+00
      21    -1     0     0   501   502  0.000000000E+00  0.000000000E+00 -5.413675359E+02  5.413675359E+02  0.000000000E+00  0.00000E+00  9.000E+00
      25     1     1     2     0     0 -1.824595667E-01  7.796664278E+01 -4.452304521E+01  1.539029962E+02  1.250000000E+02  0.00000E+00  9.000E+00
      25     1     1     2     0     0 -4.888389013E+01 -8.368236493E+01 -4.153140883E+02  4.444132815E+02  1.250000000E+02  0.00000E+00  9.000E+00
      21     1     1     2   501   511  4.906634969E+01  5.715722142E+00  3.734324825E+01  6.192490890E+01  0.000000000E+00  0.00000E+00  9.000E+00
#rwgt            2          11   1.2832297748346549E-003           5      290948           0
</event>
<event>
      5   9999  3.79277E-02  7.38405E+01 -1.00000E+00  1.30057E-01
      21    -1     0     0   502   512  0.000000000E+00  0.000000000E+00  1.214314856E+03  1.214314856E+03  0.000000000E+00  0.00000E+00  9.000E+00
      21    -1     0     0   501   502  0.000000000E+00  0.000000000E+00 -4.597238579E+02  4.597238579E+02  0.000000000E+00  0.00000E+00  9.000E+00
      25     1     1     2     0     0  1.253727836E+02  1.834607741E+02 -1.902248000E+02  3.180985147E+02  1.250000000E+02  0.00000E+00  9.000E+00
      25     1     1     2     0     0 -1.423643706E+02 -1.116018047E+02 -1.451543402E+02  2.634717429E+02  1.250000000E+02  0.00000E+00  9.000E+00
      21     1     1     2   501   512  1.699158703E+01 -7.185896937E+01  1.089970138E+03  1.092468456E+03  0.000000000E+00  0.00000E+00  9.000E+00
#rwgt            1           1   2.8956784129427860E-002           5      290983           0
</event>
<event>
      5   9999  3.79277E-02  1.45439E+01 -1.00000E+00  1.78656E-01
      21    -1     0     0   511   501  0.000000000E+00  0.000000000E+00  3.513445943E+02  3.513445943E+02  0.000000000E+00  0.00000E+00  9.000E+00
      21    -1     0     0   501   502  0.000000000E+00  0.000000000E+00 -1.381957941E+02  1.381957941E+02  0.000000000E+00  0.00000E+00  9.000E+00
      25     1     1     2     0     0  7.158880743E+01 -9.755683773E+01 -4.077959884E+01  1.786904296E+02  1.250000000E+02  0.00000E+00  9.000E+00
      25     1     1     2     0     0 -6.385983384E+01  8.523661927E+01  2.260342106E+02  2.793918825E+02  1.250000000E+02  0.00000E+00  9.000E+00
      21     1     1     2   511   502 -7.728973589E+00  1.232021847E+01  2.789418845E+01  3.145807631E+01  3.371747881E-07  0.00000E+00  9.000E+00
#rwgt            1           1   3.5266403394599570E-002           5      291039           0
</event>
<event>
      5   9999  3.79277E-02  6.70766E+01 -1.00000E+00  1.32166E-01
      21    -1     0     0   502   501  0.000000000E+00  0.000000000E+00  2.338359915E+03  2.338359915E+03  0.000000000E+00  0.00000E+00  9.000E+00
      21    -1     0     0   512   502  0.000000000E+00  0.000000000E+00 -2.456659481E+01  2.456659481E+01  0.000000000E+00  0.00000E+00  9.000E+00
      25     1     1     2     0     0 -6.164564244E+01  8.932483433E+01  1.583391579E+03  1.592021672E+03  1.250000000E+02  0.00000E+00  9.000E+00
      25     1     1     2     0     0 -5.004422555E+00 -9.687737509E+01  6.341162378E+02  6.535584696E+02  1.250000000E+02  0.00000E+00  9.000E+00
      21     1     1     2   512   501  6.665006499E+01  7.552540757E+00  9.628550386E+01  1.173463689E+02  2.697398305E-06  0.00000E+00  9.000E+00
#rwgt            1           1  0.10730774941658389                5      291250           0
</event>
<event>
      5   9999  3.79277E-02  5.38170E+01 -1.00000E+00  1.37277E-01
       2    -1     0     0   502     0  0.000000000E+00  0.000000000E+00  8.690274481E+02  8.690274481E+02  0.000000000E+00  0.00000E+00  9.000E+00
      21    -1     0     0   501   502  0.000000000E+00  0.000000000E+00 -3.753696799E+02  3.753696799E+02  0.000000000E+00  0.00000E+00  9.000E+00
      25     1     1     2     0     0 -8.409394961E+01 -7.251118263E+01 -1.469935725E+02  2.226247388E+02  1.250000000E+02  0.00000E+00  9.000E+00
      25     1     1     2     0     0  1.176342460E+02  1.145982050E+02 -1.334690650E+02  2.457835546E+02  1.250000000E+02  0.00000E+00  9.000E+00
       2     1     1     2   501     0 -3.354029637E+01 -4.208702239E+01  7.741204057E+02  7.759888346E+02  1.078959322E-05  0.00000E+00  9.000E+00
#rwgt            1           1   3.7811426164224476E-002           5      291432           0
</event>
<event>
      5   9999  3.79277E-02  1.08015E+02 -1.00000E+00  1.22340E-01
      21    -1     0     0   502   501  0.000000000E+00  0.000000000E+00  5.709669370E+02  5.709669370E+02  0.000000000E+00  0.00000E+00  9.000E+00
      21    -1     0     0   511   502  0.000000000E+00  0.000000000E+00 -1.343963497E+02  1.343963497E+02  0.000000000E+00  0.00000E+00  9.000E+00
      25     1     1     2     0     0  2.468454358E+01  1.042083873E+02  4.159776335E+02  4.473601528E+02  1.250000000E+02  0.00000E+00  9.000E+00
      25     1     1     2     0     0  5.803686377E+01 -3.475075208E+01 -1.807727681E+01  1.432748417E+02  1.250000000E+02  0.00000E+00  9.000E+00
      21     1     1     2   511   501 -8.272140735E+01 -6.945763520E+01  3.867023056E+01  1.147282923E+02  0.000000000E+00  0.00000E+00  9.000E+00
#rwgt            1           1   4.4921810337744665E-002           5      291530           0
</event>
<event>
      5   9999  3.79277E-02  9.97554E+01 -1.00000E+00  1.23876E-01
      21    -1     0     0   502   512  0.000000000E+00  0.000000000E+00  1.622574264E+02  1.622574264E+02  0.000000000E+00  0.00000E+00  9.000E+00
      21    -1     0     0   501   502  0.000000000E+00  0.000000000E+00 -1.233944043E+03  1.233944043E+03  0.000000000E+00  0.00000E+00  9.000E+00
      25     1     1     2     0     0 -5.751003163E+01 -1.793143080E+02 -9.719529603E+02  9.978870587E+02  1.250000000E+02  0.00000E+00  9.000E+00
      25     1     1     2     0     0 -3.870967668E+01  1.529910422E+02 -1.801708018E+02  2.701688655E+02  1.250000000E+02  0.00000E+00  9.000E+00
      21     1     1     2   501   512  9.621970831E+01  2.632326576E+01  8.043714500E+01  1.281455457E+02  1.907348633E-06  0.00000E+00  9.000E+00
#rwgt            1           1   8.9902615394093902E-002           5      291659           0
</event>
<event>
      5   9999  3.79277E-02  1.66808E+02 -1.00000E+00  1.14594E-01
      21    -1     0     0   502   501  0.000000000E+00  0.000000000E+00  3.788120282E+02  3.788120282E+02  0.000000000E+00  0.00000E+00  9.000E+00
      21    -1     0     0   501   511  0.000000000E+00  0.000000000E+00 -2.950058324E+02  2.950058324E+02  0.000000000E+00  0.00000E+00  9.000E+00
      25     1     1     2     0     0  4.831805270E+00 -2.480058347E+02  6.576992831E+00  2.778461755E+02  1.250000000E+02  0.00000E+00  9.000E+00
      25     1     1     2     0     0  1.016753693E+02  1.196265965E+02  1.055962848E+02  2.267685575E+02  1.250000000E+02  0.00000E+00  9.000E+00
      21     1     1     2   502   511 -1.065071746E+02  1.283792383E+02 -2.836708188E+01  1.692031276E+02  3.034573093E-06  0.00000E+00  9.000E+00
#rwgt            1           1   3.5086932876927580E-002           5      291689           0
</event>
<event>
      5   9999  3.79277E-02  2.56967E+01 -1.00000E+00  1.57862E-01
      21    -1     0     0   512   501  0.000000000E+00  0.000000000E+00  8.730003017E+01  8.730003017E+01  0.000000000E+00  0.00000E+00  9.000E+00
      21    -1     0     0   501   502  0.000000000E+00  0.000000000E+00 -6.364351242E+02  6.364351242E+02  0.000000000E+00  0.00000E+00  9.000E+00
      25     1     1     2     0     0  1.642687964E+02 -2.217089026E+01 -3.814689094E+02  4.343032520E+02  1.250000000E+02  0.00000E+00  9.000E+00
      25     1     1     2     0     0 -1.593068556E+02  4.738398858E+01 -1.606698919E+02  2.627997921E+02  1.250000000E+02  0.00000E+00  9.000E+00
      21     1     1     2   512   502 -4.961940891E+00 -2.521309831E+01 -6.996292823E+00  2.663211026E+01  3.039252468E-07  0.00000E+00  9.000E+00
#rwgt            1           1   3.8673680443593664E-002           5      291752           0
</event>
<event>
      5   9999  3.79277E-02  3.67555E+01 -1.00000E+00  1.47156E-01
      21    -1     0     0   502   501  0.000000000E+00  0.000000000E+00  8.035096757E+02  8.035096757E+02  0.000000000E+00  0.00000E+00  9.000E+00
      21    -1     0     0   511   502  0.000000000E+00  0.000000000E+00 -1.946165697E+02  1.946165697E+02  0.000000000E+00  0.00000E+00  9.000E+00
      25     1     1     2     0     0 -1.851598853E+02 -1.944856712E+02  2.348617604E+01  2.971286924E+02  1.250000000E+02  0.00000E+00  9.000E+00
      25     1     1     2     0     0  1.996977259E+02  2.282439043E+02  5.763252864E+02  6.631367109E+02  1.250000000E+02  0.00000E+00  9.000E+00
      21     1     1     2   511   501 -1.453784060E+01 -3.375823318E+01  9.081643516E+00  3.786084212E+01  6.194296387E-07  0.00000E+00  9.000E+00
#rwgt            1           1   4.0057898377519809E-002           5      291904           0
</event>
<event>
      5   9999  3.79277E-02  4.75538E+01 -1.00000E+00  1.40330E-01
      21    -1     0     0   502   501  0.000000000E+00  0.000000000E+00  1.063156045E+02  1.063156045E+02  0.000000000E+00  0.00000E+00  9.000E+00
      21    -1     0     0   512   502  0.000000000E+00  0.000000000E+00 -1.003614423E+03  1.003614423E+03  0.000000000E+00  0.00000E+00  9.000E+00
      25     1     1     2     0     0 -2.259227862E+00  2.554208154E+02 -3.994153628E+02  4.903086060E+02  1.250000000E+02  0.00000E+00  9.000E+00
      25     1     1     2     0     0 -4.477770520E+01 -2.624128465E+02 -3.162318249E+02  4.318484827E+02  1.250000000E+02  0.00000E+00  9.000E+00
      21     1     1     2   512   501  4.703693307E+01  6.992031049E+00 -1.816516303E+02  1.877729384E+02  2.697398305E-06  0.00000E+00  9.000E+00
#rwgt            1           1   3.0272208936692375E-002           5      292139           0
</event>
<event>
      5   9999  3.79277E-02  2.33294E+01 -1.00000E+00  1.61034E-01
      21    -1     0     0   502   501  0.000000000E+00  0.000000000E+00  6.310896441E+02  6.310896441E+02  0.000000000E+00  0.00000E+00  9.000E+00
       1    -1     0     0   501     0  0.000000000E+00  0.000000000E+00 -5.192855545E+02  5.192855545E+02  0.000000000E+00  0.00000E+00  9.000E+00
      25     1     1     2     0     0  5.356376511E+01 -1.803579634E+02  4.917982749E+02  5.411918468E+02  1.250000000E+02  0.00000E+00  9.000E+00
      25     1     1     2     0     0 -3.423910490E+01  1.934276881E+02 -4.410271451E+00  2.328755833E+02  1.250000000E+02  0.00000E+00  9.000E+00
       1     1     1     2   502     0 -1.932466021E+01 -1.306972471E+01 -3.755839138E+02  3.763077684E+02  0.000000000E+00  0.00000E+00  9.000E+00
#rwgt            1           1   4.2631216275289874E-002           5      292298           0
</event>
<event>
      5   9999  3.79277E-02  2.98829E+01 -1.00000E+00  1.53158E-01
      21    -1     0     0   502   501  0.000000000E+00  0.000000000E+00  1.436581636E+02  1.436581636E+02  0.000000000E+00  0.00000E+00  9.000E+00
      21    -1     0     0   501   511  0.000000000E+00  0.000000000E+00 -4.404059334E+02  4.404059334E+02  0.000000000E+00  0.00000E+00  9.000E+00
      25     1     1     2     0     0  1.397364447E+02 -4.043212206E-01  9.064066478E+00  1.877061394E+02  1.250000000E+02  0.00000E+00  9.000E+00
      25     1     1     2     0     0 -1.133035036E+02  1.434296348E+01 -1.184713936E+02  2.066491607E+02  1.250000000E+02  0.00000E+00  9.000E+00
      21     1     1     2   502   511 -2.643294118E+01 -1.393864226E+01 -1.873404427E+02  1.897087968E+02  0.000000000E+00  0.00000E+00  9.000E+00
#rwgt            1           1   3.5266635294247242E-002           5      292541           0
</event>
<event>
      5   9999  3.79277E-02  1.38959E+02 -1.00000E+00  1.17725E-01
      21    -1     0     0   502   501  0.000000000E+00  0.000000000E+00  2.669517317E+03  2.669517317E+03  0.000000000E+00  0.00000E+00  9.000E+00
      21    -1     0     0   512   502  0.000000000E+00  0.000000000E+00 -7.347235142E+01  7.347235142E+01  0.000000000E+00  0.00000E+00  9.000E+00
      25     1     1     2     0     0 -1.275418488E+02 -1.112211767E+02  1.894419108E+03  1.906065537E+03  1.250000000E+02  0.00000E+00  9.000E+00
      25     1     1     2     0     0 -8.037885855E+00  1.416793480E+02  6.675894549E+02  6.938575686E+02  1.250000000E+02  0.00000E+00  9.000E+00
      21     1     1     2   512   501  1.355797347E+02 -3.045817134E+01  3.403640214E+01  1.430665626E+02  2.185142372E-06  0.00000E+00  9.000E+00
#rwgt            1           1   5.0960019000096390E-002           5      292661           0
</event>
<event>
      5   9999  3.79277E-02  7.33862E+01 -1.00000E+00  1.30190E-01
      21    -1     0     0   502   501  0.000000000E+00  0.000000000E+00  9.631071918E+01  9.631071918E+01  0.000000000E+00  0.00000E+00  9.000E+00
       2    -1     0     0   501     0  0.000000000E+00  0.000000000E+00 -2.284524457E+03  2.284524457E+03  0.000000000E+00  0.00000E+00  9.000E+00
      25     1     1     2     0     0  3.987991665E+01 -2.417711614E+02 -2.159479195E+02  3.497173233E+02  1.250000000E+02  0.00000E+00  9.000E+00
      25     1     1     2     0     0  1.027911194E+01  1.882024712E+02 -4.191958122E+02  4.763149790E+02  1.250000000E+02  0.00000E+00  9.000E+00
       2     1     1     2   502     0 -5.015902859E+01  5.356869023E+01 -1.553070006E+03  1.554802873E+03  0.000000000E+00  0.00000E+00  9.000E+00
#rwgt            1           1   4.0828914913084151E-002           5      292698           0
</event>
<event>
      5   9999  3.79277E-02  4.13414E+01 -1.00000E+00  1.43957E-01
      21    -1     0     0   502   501  0.000000000E+00  0.000000000E+00  6.006461869E+02  6.006461869E+02  0.000000000E+00  0.00000E+00  9.000E+00
       2    -1     0     0   501     0  0.000000000E+00  0.000000000E+00 -2.394502729E+02  2.394502729E+02  0.000000000E+00  0.00000E+00  9.000E+00
      25     1     1     2     0     0 -6.483831620E+01  1.629779833E+02 -1.015122475E+02  2.381083087E+02  1.250000000E+02  0.00000E+00  9.000E+00
      25     1     1     2     0     0  9.335711193E+01 -1.330482755E+02  5.036599069E+02  5.437974768E+02  1.250000000E+02  0.00000E+00  9.000E+00
       2     1     1     2   502     0 -2.851879574E+01 -2.992970776E+01 -4.095174541E+01  5.819067424E+01  0.000000000E+00  0.00000E+00  9.000E+00
#rwgt            1           1   3.6510226623924107E-002           5      292808           0
</event>
<event>
      5   9999  3.79277E-02  1.50519E+01 -1.00000E+00  1.77242E-01
      21    -1     0     0   511   501  0.000000000E+00  0.000000000E+00  2.997942857E+02  2.997942857E+02  0.000000000E+00  0.00000E+00  9.000E+00
      21    -1     0     0   501   502  0.000000000E+00  0.000000000E+00 -2.778948303E+02  2.778948303E+02  0.000000000E+00  0.00000E+00  9.000E+00
      25     1     1     2     0     0 -4.380287542E+01  5.224032920E+01 -2.229527549E+02  2.645386074E+02  1.250000000E+02  0.00000E+00  9.000E+00
      25     1     1     2     0     0  5.493731750E+01 -6.236863755E+01  1.338081608E+02  2.010909737E+02  1.250000000E+02  0.00000E+00  9.000E+00
      21     1     1     2   511   502 -1.113444208E+01  1.012830835E+01  1.110440494E+02  1.120595348E+02  1.907348633E-06  0.00000E+00  9.000E+00
#rwgt            1           1   3.9345562401348427E-002           5      292909           0
</event>
<event>
      5   9999  3.79277E-02  1.56390E+02 -1.00000E+00  1.15680E-01
      21    -1     0     0   502   512  0.000000000E+00  0.000000000E+00  4.051613587E+02  4.051613587E+02  0.000000000E+00  0.00000E+00  9.000E+00
      21    -1     0     0   501   502  0.000000000E+00  0.000000000E+00 -3.007984119E+02  3.007984119E+02  0.000000000E+00  0.00000E+00  9.000E+00
      25     1     1     2     0     0  5.368161742E+01  2.043141491E+02 -1.619010582E+02  2.940458131E+02  1.250000000E+02  0.00000E+00  9.000E+00
      25     1     1     2     0     0 -8.090865114E+01 -5.031242198E+01  1.194618768E+02  1.974175515E+02  1.250000000E+02  0.00000E+00  9.000E+00
      21     1     1     2   501   512  2.722703372E+01 -1.540017271E+02  1.468021282E+02  2.144964059E+02  4.264961200E-06  0.00000E+00  9.000E+00
#rwgt            1           1   4.5927140904786813E-002           5      293167           0
</event>
<event>
      5   9999  3.79277E-02  3.42460E+01 -1.00000E+00  1.49151E-01
      21    -1     0     0   502   501  0.000000000E+00  0.000000000E+00  7.498162281E+02  7.498162281E+02  0.000000000E+00  0.00000E+00  9.000E+00
      21    -1     0     0   511   502  0.000000000E+00  0.000000000E+00 -1.073483691E+02  1.073483691E+02  0.000000000E+00  0.00000E+00  9.000E+00
      25     1     1     2     0     0  1.279250645E+02  2.173990805E+01  5.806377885E+01  1.892983046E+02  1.250000000E+02  0.00000E+00  9.000E+00
      25     1     1     2     0     0 -1.137320746E+02 -5.290637976E+01  6.033002418E+02  6.287529336E+02  1.250000000E+02  0.00000E+00  9.000E+00
      21     1     1     2   511   501 -1.419298992E+01  3.116647171E+01 -1.889616159E+01  3.911335890E+01  1.327458468E-06  0.00000E+00  9.000E+00
#rwgt            1           1   3.5555344817570389E-002           5      293236           0
</event>
<event>
      5   9999  3.79277E-02  1.21666E+02 -1.00000E+00  1.20115E-01
      21    -1     0     0   502   501  0.000000000E+00  0.000000000E+00  2.293887441E+02  2.293887441E+02  0.000000000E+00  0.00000E+00  9.000E+00
      21    -1     0     0   512   502  0.000000000E+00  0.000000000E+00 -3.271008117E+02  3.271008117E+02  0.000000000E+00  0.00000E+00  9.000E+00
      25     1     1     2     0     0 -5.637920384E+01 -4.171708032E+00  9.413175406E+01  1.663784989E+02  1.250000000E+02  0.00000E+00  9.000E+00
      25     1     1     2     0     0  1.776623224E+02  1.381524007E+01 -1.314387036E+02  2.542752337E+02  1.250000000E+02  0.00000E+00  9.000E+00
      21     1     1     2   512   501 -1.212831186E+02 -9.643532037E+00 -6.040511808E+01  1.358358232E+02  1.348699152E-06  0.00000E+00  9.000E+00
#rwgt            1           1   2.3170907161485777E-002           5      293307           0
</event>
<event>
      5   9999  3.79277E-02  3.42490E+01 -1.00000E+00  1.49149E-01
      21    -1     0     0   511   501  0.000000000E+00  0.000000000E+00  5.473573410E+02  5.473573410E+02  0.000000000E+00  0.00000E+00  9.000E+00
      21    -1     0     0   501   502  0.000000000E+00  0.000000000E+00 -7.251055477E+01  7.251055477E+01  0.000000000E+00  0.00000E+00  9.000E+00
      25     1     1     2     0     0 -1.343765925E+02  2.464814686E+01  1.588152177E+02  2.439505547E+02  1.250000000E+02  0.00000E+00  9.000E+00
      25     1     1     2     0     0  1.082167400E+02 -2.542502364E+00  2.295890376E+02  2.829371897E+02  1.250000000E+02  0.00000E+00  9.000E+00
      21     1     1     2   511   502  2.615985249E+01 -2.210564450E+01  8.644253087E+01  9.298015134E+01  9.536743164E-07  0.00000E+00  9.000E+00
#rwgt            1           1   4.0913272205272730E-002           5      293400           0
</event>
<event>
      5   9999  3.79277E-02  1.12421E+02 -1.00000E+00  1.21583E-01
      21    -1     0     0   502   512  0.000000000E+00  0.000000000E+00  4.960503192E+02  4.960503192E+02  0.000000000E+00  0.00000E+00  9.000E+00
      21    -1     0     0   501   502  0.000000000E+00  0.000000000E+00 -1.553481961E+02  1.553481961E+02  0.000000000E+00  0.00000E+00  9.000E+00
      25     1     1     2     0     0  1.268609039E+02 -3.520703678E+01  7.842119786E+01  1.977577019E+02  1.250000000E+02  0.00000E+00  9.000E+00
      25     1     1     2     0     0 -7.679548802E+01  1.358641347E+02  3.909496806E+01  2.037400957E+02  1.250000000E+02  0.00000E+00  9.000E+00
      21     1     1     2   501   512 -5.006541593E+01 -1.006570979E+02  2.231859572E+02  2.499007177E+02  0.000000000E+00  0.00000E+00  9.000E+00
#rwgt            1           1   1.5195766837308385E-002           5      293639           0
</event>
<event>
      5   9999  3.79277E-02  1.56571E+02 -1.00000E+00  1.15660E-01
      21    -1     0     0   511   501  0.000000000E+00  0.000000000E+00  3.226233579E+02  3.226233579E+02  0.000000000E+00  0.00000E+00  9.000E+00
      21    -1     0     0   501   502  0.000000000E+00  0.000000000E+00 -3.504884462E+02  3.504884462E+02  0.000000000E+00  0.00000E+00  9.000E+00
      25     1     1     2     0     0  6.358953552E+01  2.421679939E+02 -1.065334490E+02  2.994383777E+02  1.250000000E+02  0.00000E+00  9.000E+00
      25     1     1     2     0     0 -1.292090492E+02 -1.000112940E+02  2.088883432E+01  2.067814806E+02  1.250000000E+02  0.00000E+00  9.000E+00
      21     1     1     2   511   502  6.561951370E+01 -1.421566999E+02  5.777952643E+01  1.668919458E+02  2.236564522E-06  0.00000E+00  9.000E+00
#rwgt            1           1   6.2382454063665667E-002           5      293834           0
</event>
<event>
      5   9999  3.79277E-02  3.92458E+01 -1.00000E+00  1.45355E-01
      21    -1     0     0   502   501  0.000000000E+00  0.000000000E+00  5.225190558E+01  5.225190558E+01  0.000000000E+00  0.00000E+00  9.000E+00
       2    -1     0     0   501     0  0.000000000E+00  0.000000000E+00 -1.319845136E+03  1.319845136E+03  0.000000000E+00  0.00000E+00  9.000E+00
      25     1     1     2     0     0  1.360793669E+01 -1.880197133E+02 -3.529313979E+02  4.191922711E+02  1.250000000E+02  0.00000E+00  9.000E+00
      25     1     1     2     0     0 -1.442978101E+01  1.487825360E+02 -5.037593881E+02  5.401323751E+02  1.250000000E+02  0.00000E+00  9.000E+00
       2     1     1     2   502     0  8.218443211E-01  3.923717724E+01 -4.109024441E+02  4.127723950E+02  5.394796609E-06  0.00000E+00  9.000E+00
#rwgt            1           1   3.8188004684402123E-002           5      293904           0
</event>
<event>
      5   9999  3.79277E-02  8.30886E+01 -1.00000E+00  1.27558E-01
      21    -1     0     0   502   511  0.000000000E+00  0.000000000E+00  3.424780566E+02  3.424780566E+02  0.000000000E+00  0.00000E+00  9.000E+00
      21    -1     0     0   501   502  0.000000000E+00  0.000000000E+00 -2.903858624E+02  2.903858624E+02  0.000000000E+00  0.00000E+00  9.000E+00
      25     1     1     2     0     0 -4.714082210E+01  1.796623395E+02 -1.386311563E+02  2.633332695E+02  1.250000000E+02  0.00000E+00  9.000E+00
      25     1     1     2     0     0 -3.369203852E+01 -1.604330370E+02  6.012487256E+01  2.147415030E+02  1.250000000E+02  0.00000E+00  9.000E+00
      21     1     1     2   501   511  8.083286062E+01 -1.922930245E+01  1.305984780E+02  1.547891465E+02  1.907348633E-06  0.00000E+00  9.000E+00
#rwgt            1           1   4.8115599313824274E-002           5      294008           0
</event>
<event>
      5   9999  3.79277E-02  1.79730E+02  7.55638E-03  1.13364E-01
      -1    -1     0     0     0   501  0.000000000E+00  0.000000000E+00  1.161455546E+02  1.161455546E+02  0.000000000E+00  0.00000E+00  9.000E+00
       1    -1     0     0   502     0  0.000000000E+00  0.000000000E+00 -5.993259194E+02  5.993259194E+02  0.000000000E+00  0.00000E+00  9.000E+00
      25     1     1     2     0     0  7.653965627E+01  5.615083837E+01 -9.090522307E+01  1.813835583E+02  1.250000000E+02  0.00000E+00  9.000E+00
      25     1     1     2     0     0  7.544359845E+01  3.978735764E+01 -7.372098527E+01  1.683287083E+02  1.250000000E+02  0.00000E+00  9.000E+00
      21     1     1     2   502   501 -1.519832547E+02 -9.593819601E+01 -3.185541565E+02  3.657592074E+02  0.000000000E+00  0.00000E+00  9.000E+00
#rwgt            3           5   3.3103522243219428E-004           5      294115           0
</event>
<event>
      5   9999  3.79277E-02  6.06543E+01 -1.00000E+00  1.34452E-01
       1    -1     0     0   502     0  0.000000000E+00  0.000000000E+00  1.857194728E+02  1.857194728E+02  0.000000000E+00  0.00000E+00  9.000E+00
      21    -1     0     0   501   502  0.000000000E+00  0.000000000E+00 -9.564775091E+02  9.564775091E+02  0.000000000E+00  0.00000E+00  9.000E+00
      25     1     1     2     0     0  2.937731704E+02  5.561967195E+01 -4.042480986E+02  5.181097845E+02  1.250000000E+02  0.00000E+00  9.000E+00
      25     1     1     2     0     0 -2.717809948E+02 -1.121465828E+02 -4.303851948E+02  5.360020346E+02  1.250000000E+02  0.00000E+00  9.000E+00
       1     1     1     2   501     0 -2.199217564E+01  5.652691089E+01  6.387525702E+01  8.808516279E+01  1.507891493E-06  0.00000E+00  9.000E+00
#rwgt            1           1   3.9288553581691393E-002           5      294254           0
</event>
<event>
      5   9999  3.79277E-02  8.46030E+00 -1.00000E+00  2.04544E-01
      21    -1     0     0   502   511  0.000000000E+00  0.000000000E+00  3.679810914E+02  3.679810914E+02  0.000000000E+00  0.00000E+00  9.000E+00
      21    -1     0     0   501   502  0.000000000E+00  0.000000000E+00 -1.519972459E+02  1.519972459E+02  0.000000000E+00  0.00000E+00  9.000E+00
      25     1     1     2     0     0  1.431342808E+02 -9.930531702E+01  1.187361297E+00  2.144186983E+02  1.250000000E+02  0.00000E+00  9.000E+00
      25     1     1     2     0     0 -1.347558882E+02  9.813091924E+01  2.018837547E+02  2.901221762E+02  1.250000000E+02  0.00000E+00  9.000E+00
      21     1     1     2   501   511 -8.378392644E+00  1.174397782E+00  1.291272946E+01  1.543746273E+01  0.000000000E+00  0.00000E+00  9.000E+00
#rwgt            2          11   2.4659598366738910E-003           5      294419           0
</event>
<event>
      5   9999  3.79277E-02  1.65857E+02 -1.00000E+00  1.14690E-01
      21    -1     0     0   502   501  0.000000000E+00  0.000000000E+00  3.824911870E+01  3.824911870E+01  0.000000000E+00  0.00000E+00  9.000E+00
       2    -1     0     0   501     0  0.000000000E+00  0.000000000E+00 -2.751587420E+03  2.751587420E+03  0.000000000E+00  0.00000E+00  9.000E+00
      25     1     1     2     0     0  6.460176175E+01 -7.664830191E+01 -4.152228174E+02  4.450655433E+02  1.250000000E+02  0.00000E+00  9.000E+00
      25     1     1     2     0     0 -1.806039691E+02  1.951902113E+02 -1.284922091E+03  1.318092103E+03  1.250000000E+02  0.00000E+00  9.000E+00
       2     1     1     2   502     0  1.160022073E+02 -1.185419094E+02 -1.013193393E+03  1.026678892E+03  1.078959322E-05  0.00000E+00  9.000E+00
#rwgt            1           1   3.9287954450097175E-002           5      294499           0
</event>
<event>
      5   9999  3.79277E-02  3.84737E+01 -1.00000E+00  1.45896E-01
      21    -1     0     0   502   501  0.000000000E+00  0.000000000E+00  6.384406397E+02  6.384406397E+02  0.000000000E+00  0.00000E+00  9.000E+00
      21    -1     0     0   501   511  0.000000000E+00  0.000000000E+00 -1.228384458E+02  1.228384458E+02  0.000000000E+00  0.00000E+00  9.000E+00
      25     1     1     2     0     0  3.541336072E+01  2.444387605E+01  5.512199726E+02  5.668510098E+02  1.250000000E+02  0.00000E+00  9.000E+00
      25     1     1     2     0     0 -4.915602618E+01  1.149173449E+01 -6.138107271E+01  1.481249842E+02  1.250000000E+02  0.00000E+00  9.000E+00
      21     1     1     2   502   511  1.374266546E+01 -3.593561055E+01  2.576329405E+01  4.630309147E+01  1.118282261E-06  0.00000E+00  9.000E+00
#rwgt            1           1   4.2873798489919797E-002           5      294571           0
</event>
<event>
      5   9999  3.79277E-02  6.87171E+00 -1.00000E+00  2.16695E-01
      21    -1     0     0   502   501  0.000000000E+00  0.000000000E+00  1.645603993E+02  1.645603993E+02  0.000000000E+00  0.00000E+00  9.000E+00
      21    -1     0     0   501   512  0.000000000E+00  0.000000000E+00 -5.044330680E+02  5.044330680E+02  0.000000000E+00  0.00000E+00  9.000E+00
      25     1     1     2     0     0  1.458941569E+02  1.153957589E+02  2.636731744E+01  2.256579749E+02  1.250000000E+02  0.00000E+00  9.000E+00
      25     1     1     2     0     0 -1.401315594E+02 -1.191391310E+02 -2.835296216E+02  3.603401626E+02  1.250000000E+02  0.00000E+00  9.000E+00
      21     1     1     2   502   512 -5.762597560E+00  3.743372029E+00 -8.271036448E+01  8.299532973E+01  1.348699152E-06  0.00000E+00  9.000E+00
#rwgt            1           1   3.8676429117666028E-002           5      294681           0
</event>
<event>
      5   9999  3.79277E-02  9.39015E+01 -1.00000E+00  1.25070E-01
       2    -1     0     0   502     0  0.000000000E+00  0.000000000E+00  5.849583520E+02  5.849583520E+02  0.000000000E+00  0.00000E+00  9.000E+00
      21    -1     0     0   501   502  0.000000000E+00  0.000000000E+00 -2.626714006E+02  2.626714006E+02  0.000000000E+00  0.00000E+00  9.000E+00
      25     1     1     2     0     0  2.693244910E+02 -1.108355336E+02  1.577663327E+02  3.540274180E+02  1.250000000E+02  0.00000E+00  9.000E+00
      25     1     1     2     0     0 -2.788345289E+02  2.042541948E+02  1.560959340E+02  3.993236923E+02  1.250000000E+02  0.00000E+00  9.000E+00
       2     1     1     2   501     0  9.510037870E+00 -9.341866122E+01  8.424684803E+00  9.427864233E+01  1.503171946E-06  0.00000E+00  9.000E+00
#rwgt            1           1   3.6065801912278192E-002           5      294970           0
</event>
<event>
      5   9999  3.79277E-02  1.43425E+02 -1.00000E+00  1.17170E-01
       2    -1     0     0   502     0  0.000000000E+00  0.000000000E+00  1.301185232E+03  1.301185232E+03  0.000000000E+00  0.00000E+00  9.000E+00
      21    -1     0     0   501   502  0.000000000E+00  0.000000000E+00 -1.137361498E+02  1.137361498E+02  0.000000000E+00  0.00000E+00  9.000E+00
      25     1     1     2     0     0  1.602106386E+02  2.088101974E+01  4.064202914E+01  2.082792362E+02  1.250000000E+02  0.00000E+00  9.000E+00
      25     1     1     2     0     0 -1.086246083E+02 -1.547076374E+02  6.010890333E+02  6.423914573E+02  1.250000000E+02  0.00000E+00  9.000E+00
       2     1     1     2   501     0 -5.158603031E+01  1.338266176E+02  5.457180201E+02  5.642506886E+02  1.078959322E-05  0.00000E+00  9.000E+00
#rwgt            2          18   4.9036677536482443E-004           5      295191           0
</event>
<event>
      5   9999  3.79277E-02  4.12510E+01 -1.00000E+00  1.44016E-01
      21    -1     0     0   502   501  0.000000000E+00  0.000000000E+00  2.014620902E+02  2.014620902E+02  0.000000000E+00  0.00000E+00  9.000E+00
      21    -1     0     0   511   502  0.000000000E+00  0.000000000E+00 -6.696066704E+02  6.696066704E+02  0.000000000E+00  0.00000E+00  9.000E+00
      25     1     1     2     0     0  1.408322290E+02 -9.130523557E+01 -3.684090841E+01  2.124914476E+02  1.250000000E+02  0.00000E+00  9.000E+00
      25     1     1     2     0     0 -1.165103253E+02  1.246232724E+02  1.344182173E+01  2.119228598E+02  1.250000000E+02  0.00000E+00  9.000E+00
      21     1     1     2   511   501 -2.432190369E+01 -3.331803687E+01 -4.447454936E+02  4.466544533E+02  0.000000000E+00  0.00000E+00  9.000E+00
#rwgt            1           1   4.3237209862233283E-002           5      295210           0
</event>
<event>
      5   9999  3.79277E-02  7.55671E+00 -1.00000E+00  2.10961E-01
      21    -1     0     0   502   501  0.000000000E+00  0.000000000E+00  5.470325980E+01  5.470325980E+01  0.000000000E+00  0.00000E+00  9.000E+00
      21    -1     0     0   501   512  0.000000000E+00  0.000000000E+00 -8.714464749E+02  8.714464749E+02  0.000000000E+00  0.00000E+00  9.000E+00
      25     1     1     2     0     0  1.461190792E+02 -6.762850629E+01 -4.317011034E+02  4.774046951E+02  1.250000000E+02  0.00000E+00  9.000E+00
      25     1     1     2     0     0 -1.454079511E+02  6.010533019E+01 -2.866910592E+02  3.501041080E+02  1.250000000E+02  0.00000E+00  9.000E+00
      21     1     1     2   502   512 -7.111280919E-01  7.523176103E+00 -9.835105249E+01  9.864093170E+01  0.000000000E+00  0.00000E+00  9.000E+00
#rwgt            1           1   3.3644913241742118E-002           5      295252           0
</event>
<event>
      5   9999  3.79277E-02  9.91640E+01 -1.00000E+00  1.23992E-01
      21    -1     0     0   502   501  0.000000000E+00  0.000000000E+00  1.629713904E+02  1.629713904E+02  0.000000000E+00  0.00000E+00  9.000E+00
      21    -1     0     0   511   502  0.000000000E+00  0.000000000E+00 -6.996759477E+02  6.996759477E+02  0.000000000E+00  0.00000E+00  9.000E+00
      25     1     1     2     0     0  1.358633833E+02 -1.552350600E+02 -7.765868363E+01  2.534021585E+02  1.250000000E+02  0.00000E+00  9.000E+00
      25     1     1     2     0     0 -9.925161574E+01  6.307721855E+01 -3.681729697E+01  1.755281518E+02  1.250000000E+02  0.00000E+00  9.000E+00
      21     1     1     2   511   501 -3.661176756E+01  9.215784145E+01 -4.222285767E+02  4.337170278E+02  0.000000000E+00  0.00000E+00  9.000E+00
#rwgt            1           1   4.0960110120299931E-002           5      295598           0
</event>
<event>
      5   9999  3.79277E-02  5.88322E+01 -1.00000E+00  1.35161E-01
      21    -1     0     0   502   501  0.000000000E+00  0.000000000E+00  8.516911953E+01  8.516911953E+01  0.000000000E+00  0.00000E+00  9.000E+00
      21    -1     0     0   501   512  0.000000000E+00  0.000000000E+00 -7.804079051E+02  7.804079051E+02  0.000000000E+00  0.00000E+00  9.000E+00
      25     1     1     2     0     0 -4.279638266E+00 -1.153735451E+02 -5.353108253E+02  5.617045930E+02  1.250000000E+02  0.00000E+00  9.000E+00
      25     1     1     2     0     0 -5.399611916E+01  1.234462076E+02 -7.054624078E+01  1.968662469E+02  1.250000000E+02  0.00000E+00  9.000E+00
      21     1     1     2   502   512  5.827575743E+01 -8.072662575E+00 -8.938171958E+01  1.070061848E+02  9.536743164E-07  0.00000E+00  9.000E+00
#rwgt            1           1   2.1220945984144170E-002           5      295715           0
</event>
<event>
      5   9999  3.79277E-02  1.59585E+01 -1.00000E+00  1.74886E-01
      21    -1     0     0   502   501  0.000000000E+00  0.000000000E+00  2.520746996E+02  2.520746996E+02  0.000000000E+00  0.00000E+00  9.000E+00
      21    -1     0     0   511   502  0.000000000E+00  0.000000000E+00 -1.551979770E+02  1.551979770E+02  0.000000000E+00  0.00000E+00  9.000E+00
      25     1     1     2     0     0  1.061608352E+02  4.735105283E+01  9.880249169E+01  1.972287441E+02  1.250000000E+02  0.00000E+00  9.000E+00
      25     1     1     2     0     0 -1.093886083E+02 -6.297972881E+01  2.434671408E+01  1.793044237E+02  1.250000000E+02  0.00000E+00  9.000E+00
      21     1     1     2   511   501  3.227773021E+00  1.562867598E+01 -2.627248321E+01  3.073950887E+01  3.371747881E-07  0.00000E+00  9.000E+00
#rwgt            1           1   4.0229968399716980E-002           5      295819           0
</event>
<event>
      5   9999  3.79277E-02  1.17507E+01 -1.00000E+00  1.87992E-01
      21    -1     0     0   502   512  0.000000000E+00  0.000000000E+00  3.162313492E+02  3.162313492E+02  0.000000000E+00  0.00000E+00  9.000E+00
      21    -1     0     0   501   502  0.000000000E+00  0.000000000E+00 -1.904478056E+02  1.904478056E+02  0.000000000E+00  0.00000E+00  9.000E+00
      25     1     1     2     0     0  1.886982978E+02  1.938657198E+01  1.062908627E+02  2.508099565E+02  1.250000000E+02  0.00000E+00  9.000E+00
      25     1     1     2     0     0 -1.979433552E+02 -1.213352298E+01  1.557474854E+00  2.344274301E+02  1.250000000E+02  0.00000E+00  9.000E+00
      21     1     1     2   501   512  9.245057423E+00 -7.253048996E+00  1.793520603E+01  2.144176816E+01  3.371747881E-07  0.00000E+00  9.000E+00
#rwgt            1           1   4.4930055673377038E-002           5      296260           0
</event>
<event>
      5   9999  3.79277E-02  1.02428E+02 -1.00000E+00  1.23361E-01
      21    -1     0     0   502   501  0.000000000E+00  0.000000000E+00  7.453726082E+02  7.453726082E+02  0.000000000E+00  0.00000E+00  9.000E+00
      21    -1     0     0   511   502  0.000000000E+00  0.000000000E+00 -1.335851328E+02  1.335851328E+02  0.000000000E+00  0.00000E+00  9.000E+00
      25     1     1     2     0     0 -1.644436493E+02 -1.645167947E+02  1.704126729E+02  3.142816708E+02  1.250000000E+02  0.00000E+00  9.000E+00
      25     1     1     2     0     0  1.668701101E+02  6.211779432E+01  3.977216848E+02  4.533340850E+02  1.250000000E+02  0.00000E+00  9.000E+00
      21     1     1     2   511   501 -2.426460761E+00  1.023990004E+02  4.365311768E+01  1.113419852E+02  8.259061849E-07  0.00000E+00  9.000E+00
#rwgt            1           1   2.6504894030077192E-002           5      296396           0
</event>
<event>
      5   9999  3.79277E-02  5.60372E+01 -1.00000E+00  1.36309E-01
       2    -1     0     0   502     0  0.000000000E+00  0.000000000E+00  1.672551444E+03  1.672551444E+03  0.000000000E+00  0.00000E+00  9.000E+00
      21    -1     0     0   501   502  0.000000000E+00  0.000000000E+00 -1.142060719E+02  1.142060719E+02  0.000000000E+00  0.00000E+00  9.000E+00
      25     1     1     2     0     0  1.369915130E+02 -1.791719854E+02  2.438067633E+02  3.548746438E+02  1.250000000E+02  0.00000E+00  9.000E+00
      25     1     1     2     0     0 -1.003985014E+02  2.216115642E+02  2.649796829E+02  3.808290651E+02  1.250000000E+02  0.00000E+00  9.000E+00
       2     1     1     2   501     0 -3.659301154E+01 -4.243957885E+01  1.049558926E+03  1.051053807E+03  1.525878906E-05  0.00000E+00  9.000E+00
#rwgt            1           1   3.5694583689691799E-002           5      296470           0
</event>
<event>
      5   9999  3.79277E-02  2.86184E+01 -1.00000E+00  1.54476E-01
      21    -1     0     0   511   501  0.000000000E+00  0.000000000E+00  2.392394693E+02  2.392394693E+02  0.000000000E+00  0.00000E+00  9.000E+00
      21    -1     0     0   501   502  0.000000000E+00  0.000000000E+00 -6.086501608E+02  6.086501608E+02  0.000000000E+00  0.00000E+00  9.000E+00
      25     1     1     2     0     0  1.028539607E+01 -2.907720482E+02 -3.609394388E+02  4.801629430E+02  1.250000000E+02  0.00000E+00  9.000E+00
      25     1     1     2     0     0 -3.006549503E+01  3.114544653E+02  2.828570466E+00  3.369581855E+02  1.250000000E+02  0.00000E+00  9.000E+00
      21     1     1     2   511   502  1.978009896E+01 -2.068241712E+01 -1.129982321E+01  3.076850171E+01  7.348554138E-07  0.00000E+00  9.000E+00
#rwgt            1           1   3.4219982453317851E-002           5      296533           0
</event>
<event>
      5   9999  3.79277E-02  1.34020E+02 -1.00000E+00  1.18366E-01
      21    -1     0     0   512   501  0.000000000E+00  0.000000000E+00  5.697846217E+02  5.697846217E+02  0.000000000E+00  0.00000E+00  9.000E+00
      21    -1     0     0   501   502  0.000000000E+00  0.000000000E+00 -1.843804439E+02  1.843804439E+02  0.000000000E+00  0.00000E+00  9.000E+00
      25     1     1     2     0     0  2.372949529E+02 -1.614886651E+02  1.671161441E+02  3.548806690E+02  1.250000000E+02  0.00000E+00  9.000E+00
      25     1     1     2     0     0 -1.402454042E+02  6.906123455E+01  1.366715692E+02  2.423682020E+02  1.250000000E+02  0.00000E+00  9.000E+00
      21     1     1     2   512   502 -9.704954868E+01  9.242743057E+01  8.161646451E+01  1.569161945E+02  9.536743164E-07  0.00000E+00  9.000E+00
#rwgt            1           1   3.0590783418388962E-002           5      296797           0
</event>
<event>
      5   9999  3.79277E-02  3.72689E+01 -1.00000E+00  1.46771E-01
      21    -1     0     0   502   501  0.000000000E+00  0.000000000E+00  2.168619784E+02  2.168619784E+02  0.000000000E+00  0.00000E+00  9.000E+00
      21    -1     0     0   511   502  0.000000000E+00  0.000000000E+00 -1.823383272E+02  1.823383272E+02  0.000000000E+00  0.00000E+00  9.000E+00
      25     1     1     2     0     0  2.818658043E+01  9.784086354E+01  1.154913724E+02  1.983193762E+02  1.250000000E+02  0.00000E+00  9.000E+00
      25     1     1     2     0     0 -2.654439617E+01 -6.060818813E+01 -8.221394000E+01  1.635912264E+02  1.250000000E+02  0.00000E+00  9.000E+00
      21     1     1     2   511   501 -1.642184260E+00 -3.723267541E+01  1.246218778E+00  3.728970298E+01  3.646981195E-07  0.00000E+00  9.000E+00
#rwgt            1           1   4.2590102167550548E-002           5      296939           0
</event>
<event>
      5   9999  3.79277E-02  2.40481E+01 -1.00000E+00  1.60024E-01
      21    -1     0     0   502   501  0.000000000E+00  0.000000000E+00  7.024367724E+02  7.024367724E+02  0.000000000E+00  0.00000E+00  9.000E+00
      21    -1     0     0   512   502  0.000000000E+00  0.000000000E+00 -8.482717794E+01  8.482717794E+01  0.000000000E+00  0.00000E+00  9.000E+00
      25     1     1     2     0     0 -1.626625503E+02  1.926061043E+01  3.747969293E+02  4.277006133E+02  1.250000000E+02  0.00000E+00  9.000E+00
      25     1     1     2     0     0  1.844411594E+02 -9.062295690E+00  2.494749893E+02  3.346093794E+02  1.250000000E+02  0.00000E+00  9.000E+00
      21     1     1     2   512   501 -2.177860912E+01 -1.019831474E+01 -6.662324160E+00  2.495395764E+01  2.528810911E-07  0.00000E+00  9.000E+00
#rwgt            1           1   3.5861963356462918E-002           5      297131           0
</event>
<event>
      5   9999  3.79277E-02  2.94344E+01 -1.00000E+00  1.53616E-01
      21    -1     0     0   502   501  0.000000000E+00  0.000000000E+00  2.347459529E+02  2.347459529E+02  0.000000000E+00  0.00000E+00  9.000E+00
      21    -1     0     0   501   511  0.000000000E+00  0.000000000E+00 -3.679339646E+02  3.679339646E+02  0.000000000E+00  0.00000E+00  9.000E+00
      25     1     1     2     0     0 -1.099564628E+01 -2.488060981E+02 -1.530181369E+02  3.179071074E+02  1.250000000E+02  0.00000E+00  9.000E+00
      25     1     1     2     0     0  5.341895691E+00  2.199197515E+02  2.706668319E+01  2.544618602E+02  1.250000000E+02  0.00000E+00  9.000E+00
      21     1     1     2   502   511  5.653750593E+00  2.888634661E+01 -7.236558035E+00  3.031094998E+01  6.419616708E-07  0.00000E+00  9.000E+00
#rwgt            1           1   4.0613261238456891E-002           5      297318           0
</event>
<event>
      5   9999  3.79277E-02  1.68248E+02 -1.00000E+00  1.14451E-01
       2    -1     0     0   502     0  0.000000000E+00  0.000000000E+00  1.978368533E+03  1.978368533E+03  0.000000000E+00  0.00000E+00  9.000E+00
      21    -1     0     0   501   502  0.000000000E+00  0.000000000E+00 -8.270445427E+01  8.270445427E+01  0.000000000E+00  0.00000E+00  9.000E+00
      25     1     1     2     0     0 -2.299252926E+02 -7.722433127E+01  4.570146880E+02  5.322749877E+02  1.250000000E+02  0.00000E+00  9.000E+00
      25     1     1     2     0     0  6.172315186E+01  8.115235267E+01  1.240914985E+02  2.035169571E+02  1.250000000E+02  0.00000E+00  9.000E+00
       2     1     1     2   501     0  1.682021407E+02 -3.928021401E+00  1.314557893E+03  1.325281043E+03  2.157918644E-05  0.00000E+00  9.000E+00
#rwgt            1           1   3.7664978087205411E-002           5      297451           0
</event>
<event>
      5   9999  3.79277E-02  3.95128E+01 -1.00000E+00  1.45171E-01
      21    -1     0     0   502   511  0.000000000E+00  0.000000000E+00  6.656514045E+01  6.656514045E+01  0.000000000E+00  0.00000E+00  9.000E+00
      21    -1     0     0   501   502  0.000000000E+00  0.000000000E+00 -1.012066313E+03  1.012066313E+03  0.000000000E+00  0.00000E+00  9.000E+00
      25     1     1     2     0     0  1.247256005E+01 -1.173849719E+02 -8.440723846E+02  8.614046592E+02  1.250000000E+02  0.00000E+00  9.000E+00
      25     1     1     2     0     0  3.672753998E+00  8.132132956E+01 -9.588005314E+01  1.773263442E+02  1.250000000E+02  0.00000E+00  9.000E+00
      21     1     1     2   501   511 -1.614531405E+01  3.606364234E+01 -5.548734915E+00  3.990045017E+01  6.307962682E-07  0.00000E+00  9.000E+00
#rwgt            1           1   4.4571078818187670E-002           5      297540           0
</event>
<event>
      5   9999  3.79277E-02  1.09456E+01 -1.00000E+00  1.91328E-01
      21    -1     0     0   502   501  0.000000000E+00  0.000000000E+00  6.773589168E+01  6.773589168E+01  0.000000000E+00  0.00000E+00  9.000E+00
      21    -1     0     0   501   512  0.000000000E+00  0.000000000E+00 -5.285564126E+02  5.285564126E+02  0.000000000E+00  0.00000E+00  9.000E+00
      25     1     1     2     0     0  1.219559585E+02 -1.179277070E+01 -2.939242974E+02  3.420947498E+02  1.250000000E+02  0.00000E+00  9.000E+00
      25     1     1     2     0     0 -1.299565264E+02  4.323059292E+00 -1.530802003E+02  2.365712056E+02  1.250000000E+02  0.00000E+00  9.000E+00
      21     1     1     2   502   512  8.000567911E+00  7.469711411E+00 -1.381602325E+01  1.762634885E+01  2.384185791E-07  0.00000E+00  9.000E+00
#rwgt            1           1   4.2117590374709100E-002           5      297735           0
</event>
<event>
      5   9999  3.79277E-02  7.20744E+01 -1.00000E+00  1.30582E-01
      21    -1     0     0   511   501  0.000000000E+00  0.000000000E+00  2.077597718E+02  2.077597718E+02  0.000000000E+00  0.00000E+00  9.000E+00
      21    -1     0     0   501   502  0.000000000E+00  0.000000000E+00 -1.840313195E+02  1.840313195E+02  0.000000000E+00  0.00000E+00  9.000E+00
      25     1     1     2     0     0  4.781572735E+01 -4.946841874E+01 -6.842894364E+01  1.582434471E+02  1.250000000E+02  0.00000E+00  9.000E+00
      25     1     1     2     0     0  2.332882765E+01  6.100812205E+01  4.779497126E+01  1.489146884E+02  1.250000000E+02  0.00000E+00  9.000E+00
      21     1     1     2   511   502 -7.114455500E+01 -1.153970331E+01  4.436242466E+01  8.463295564E+01  1.966049969E-06  0.00000E+00  9.000E+00
#rwgt            1           1   9.8628588159239999E-002           5      298026           0
</event>
<event>
      5   9999  3.79277E-02  1.79237E+01 -1.00000E+00  1.70395E-01
      21    -1     0     0   502   512  0.000000000E+00  0.000000000E+00  8.105719675E+02  8.105719675E+02  0.000000000E+00  0.00000E+00  9.000E+00
      21    -1     0     0   501   502  0.000000000E+00  0.000000000E+00 -6.568458167E+01  6.568458167E+01  0.000000000E+00  0.00000E+00  9.000E+00
      25     1     1     2     0     0  2.457756485E+01  7.427097447E+01  4.378084147E+01  1.538245638E+02  1.250000000E+02  0.00000E+00  9.000E+00
      25     1     1     2     0     0 -1.566155159E+01 -8.981971158E+01  5.930925330E+02  6.129409576E+02  1.250000000E+02  0.00000E+00  9.000E+00
      21     1     1     2   501   512 -8.916013262E+00  1.554873711E+01  1.080140113E+02  1.094910277E+02  1.348699152E-06  0.00000E+00  9.000E+00
#rwgt            1           1   5.2667403186374306E-002           5      298096           0
</event>
<event>
      5   9999  3.79277E-02  1.31307E+01 -1.00000E+00  1.83008E-01
      21    -1     0     0   502   511  0.000000000E+00  0.000000000E+00  5.961742831E+02  5.961742831E+02  0.000000000E+00  0.00000E+00  9.000E+00
      21    -1     0     0   501   502  0.000000000E+00  0.000000000E+00 -6.528122093E+01  6.528122093E+01  0.000000000E+00  0.00000E+00  9.000E+00
      25     1     1     2     0     0  1.093768961E+02  6.020214068E+01  1.454850162E+02  2.288634813E+02  1.250000000E+02  0.00000E+00  9.000E+00
      25     1     1     2     0     0 -1.215358786E+02 -5.524489004E+01  3.515479569E+02  3.962750733E+02  1.250000000E+02  0.00000E+00  9.000E+00
      21     1     1     2   501   511  1.215898247E+01 -4.957250638E+00  3.386008909E+01  3.631694951E+01  0.000000000E+00  0.00000E+00  9.000E+00
#rwgt            1           1   1.6952253635700864E-002           5      298218           0
</event>
<event>
      5   9999  3.79277E-02  8.71353E+01 -1.00000E+00  1.26579E-01
      21    -1     0     0   502   501  0.000000000E+00  0.000000000E+00  1.209136655E+02  1.209136655E+02  0.000000000E+00  0.00000E+00  9.000E+00
      21    -1     0     0   512   502  0.000000000E+00  0.000000000E+00 -6.614551603E+02  6.614551603E+02  0.000000000E+00  0.00000E+00  9.000E+00
      25     1     1     2     0     0  3.640962006E+01  1.327645947E+01  2.180862215E+01  1.326745673E+02  1.250000000E+02  0.00000E+00  9.000E+00
      25     1     1     2     0     0 -8.819370596E+01  5.680186493E+01 -1.299621437E+02  2.086138548E+02  1.250000000E+02  0.00000E+00  9.000E+00
      21     1     1     2   512   501  5.178408589E+01 -7.007832440E+01 -4.323879732E+02  4.410804037E+02  0.000000000E+00  0.00000E+00  9.000E+00
#rwgt            1           1   3.4729023791491419E-002           5      298515           0
</event>
<event>
      5   9999  3.79277E-02  5.88039E+01 -1.00000E+00  1.35172E-01
      21    -1     0     0   502   501  0.000000000E+00  0.000000000E+00  1.134851221E+02  1.134851221E+02  0.000000000E+00  0.00000E+00  9.000E+00
      21    -1     0     0   501   511  0.000000000E+00  0.000000000E+00 -6.303616727E+02  6.303616727E+02  0.000000000E+00  0.00000E+00  9.000E+00
      25     1     1     2     0     0 -5.077140695E+01 -6.770197056E+01  3.953480697E+01  1.560426017E+02  1.250000000E+02  0.00000E+00  9.000E+00
      25     1     1     2     0     0  7.073302468E+00  2.835264444E+01 -3.361171724E+02  3.597966893E+02  1.250000000E+02  0.00000E+00  9.000E+00
      21     1     1     2   502   511  4.369810448E+01  3.934932611E+01 -2.202941852E+02  2.280075039E+02  2.697398305E-06  0.00000E+00  9.000E+00
#rwgt            1           1   3.4959840440101204E-002           5      298684           0
</event>
<event>
      5   9999 -3.79277E-02  4.08293E+01 -1.00000E+00  1.44290E-01
      21    -1     0     0   512   501  0.000000000E+00  0.000000000E+00  6.602604826E+01  6.602604826E+01  0.000000000E+00  0.00000E+00  9.000E+00
      21    -1     0     0   501   502  0.000000000E+00  0.000000000E+00 -9.703522048E+02  9.703522048E+02  0.000000000E+00  0.00000E+00  9.000E+00
      25     1     1     2     0     0 -4.379693890E+01 -2.300120966E+01 -1.001978109E+02  1.676658248E+02  1.250000000E+02  0.00000E+00  9.000E+00
      25     1     1     2     0     0  7.541894493E+01 -2.826760079E+00 -8.137648507E+02  8.267612957E+02  1.250000000E+02  0.00000E+00  9.000E+00
      21     1     1     2   512   502 -3.162200603E+01  2.582796974E+01  9.636505116E+00  4.195113249E+01  7.996802250E-07  0.00000E+00  9.000E+00
#rwgt            1           1  -9.4950558107481601E-003           5      298777           0
</event>
<event>
      5   9999  3.79277E-02  2.49246E+01 -1.00000E+00  1.58849E-01
      21    -1     0     0   502   501  0.000000000E+00  0.000000000E+00  4.287309115E+02  4.287309115E+02  0.000000000E+00  0.00000E+00  9.000E+00
      21    -1     0     0   501   511  0.000000000E+00  0.000000000E+00 -1.687470136E+02  1.687470136E+02  0.000000000E+00  0.00000E+00  9.000E+00
      25     1     1     2     0     0 -5.234604973E+01  2.002288633E+02  1.063225975E+02  2.641234586E+02  1.250000000E+02  0.00000E+00  9.000E+00
      25     1     1     2     0     0  4.173379568E+01 -1.776762991E+02  1.884208943E+02  2.905821921E+02  1.250000000E+02  0.00000E+00  9.000E+00
      21     1     1     2   502   511  1.061225405E+01 -2.255256423E+01 -3.475959399E+01  4.277227448E+01  8.259061849E-07  0.00000E+00  9.000E+00
#rwgt            1           1   3.7590594563328354E-002           5      298867           0
</event>
<event>
      5   9999  3.79277E-02  5.19313E+00 -1.00000E+00  2.35676E-01
      21    -1     0     0   502   501  0.000000000E+00  0.000000000E+00  1.220364745E+03  1.220364745E+03  0.000000000E+00  0.00000E+00  9.000E+00
      21    -1     0     0   512   502  0.000000000E+00  0.000000000E+00 -4.236938626E+01  4.236938626E+01  0.000000000E+00  0.00000E+00  9.000E+00
      25     1     1     2     0     0  9.642600916E+01 -6.118965501E+01  1.005119892E+03  1.019280700E+03  1.250000000E+02  0.00000E+00  9.000E+00
      25     1     1     2     0     0 -9.132700813E+01  6.020539194E+01  1.690914199E+02  2.370278885E+02  1.250000000E+02  0.00000E+00  9.000E+00
      21     1     1     2   512   501 -5.099001027E+00  9.842630762E-01  3.784047230E+00  6.425542678E+00  4.214684851E-08  0.00000E+00  9.000E+00
#rwgt            1           1   4.4734079235431046E-002           5      299053           0
</event>
<event>
      5   9999  3.79277E-02  5.24369E+01 -1.00000E+00  1.37907E-01
      21    -1     0     0   502   501  0.000000000E+00  0.000000000E+00  4.438135626E+02  4.438135626E+02  0.000000000E+00  0.00000E+00  9.000E+00
      21    -1     0     0   501   511  0.000000000E+00  0.000000000E+00 -3.500665476E+02  3.500665476E+02  0.000000000E+00  0.00000E+00  9.000E+00
      25     1     1     2     0     0 -2.572207631E+02  9.304981294E+01  1.708149875E+02  3.458663739E+02  1.250000000E+02  0.00000E+00  9.000E+00
      25     1     1     2     0     0  2.298128762E+02 -1.377536472E+02  5.962106426E+01  3.016118312E+02  1.250000000E+02  0.00000E+00  9.000E+00
      21     1     1     2   502   511  2.740788684E+01  4.470383431E+01 -1.366890367E+02  1.464019051E+02  2.697398305E-06  0.00000E+00  9.000E+00
#rwgt            1           1   2.8078396477490632E-002           5      299446           0
</event>
<event>
      5   9999  3.79277E-02  4.09512E+01 -1.00000E+00  1.44210E-01
      21    -1     0     0   512   501  0.000000000E+00  0.000000000E+00  1.214404362E+03  1.214404362E+03  0.000000000E+00  0.00000E+00  9.000E+00
      21    -1     0     0   501   502  0.000000000E+00  0.000000000E+00 -3.470254103E+02  3.470254103E+02  0.000000000E+00  0.00000E+00  9.000E+00
      25     1     1     2     0     0 -1.112939071E+02  2.462572281E+02 -2.033786641E+02  3.605784757E+02  1.250000000E+02  0.00000E+00  9.000E+00
      25     1     1     2     0     0  7.454453724E+01 -2.643261464E+02  2.883341748E+02  4.173569169E+02  1.250000000E+02  0.00000E+00  9.000E+00
      21     1     1     2   512   502  3.674936987E+01  1.806891831E+01  7.824234412E+02  7.834943799E+02  1.078959322E-05  0.00000E+00  9.000E+00
#rwgt            1           1   5.1982542316428425E-002           5      299590           0
</event>
<event>
      5   9999  3.79277E-02  1.36713E+01 -1.00000E+00  1.81265E-01
      21    -1     0     0   502   511  0.000000000E+00  0.000000000E+00  1.762884476E+02  1.762884476E+02  0.000000000E+00  0.00000E+00  9.000E+00
      21    -1     0     0   501   502  0.000000000E+00  0.000000000E+00 -1.964572212E+02  1.964572212E+02  0.000000000E+00  0.00000E+00  9.000E+00
      25     1     1     2     0     0 -3.031742300E+01  9.106766410E+01 -1.037317571E+02  1.886736416E+02  1.250000000E+02  0.00000E+00  9.000E+00
      25     1     1     2     0     0  3.105910429E+01 -7.741654405E+01  7.798799655E+01  1.693077578E+02  1.250000000E+02  0.00000E+00  9.000E+00
      21     1     1     2   501   511 -7.416812948E-01 -1.365112005E+01  5.574987064E+00  1.476426939E+01  5.960464478E-08  0.00000E+00  9.000E+00
#rwgt            1           1   4.8380964379455521E-002           5      299775           0
</event>
<event>
      5   9999  3.79277E-02  8.58358E+01 -1.00000E+00  1.26887E-01
      21    -1     0     0   502   501  0.000000000E+00  0.000000000E+00  6.082059974E+02  6.082059974E+02  0.000000000E+00  0.00000E+00  9.000E+00
      21    -1     0     0   501   512  0.000000000E+00  0.000000000E+00 -1.554880032E+02  1.554880032E+02  0.000000000E+00  0.00000E+00  9.000E+00
      25     1     1     2     0     0 -1.117424196E+01 -2.418562314E+01  4.815929960E+02  4.982636067E+02  1.250000000E+02  0.00000E+00  9.000E+00
      25     1     1     2     0     0 -1.456448056E+01  1.060715367E+02 -5.842944789E+01  1.746490635E+02  1.250000000E+02  0.00000E+00  9.000E+00
      21     1     1     2   502   512  2.573872251E+01 -8.188591354E+01  2.955444615E+01  9.078133046E+01  1.011524364E-06  0.00000E+00  9.000E+00
#rwgt            1           1   2.8684118894934628E-002           5      299932           0
</event>
<event>
      5   9999  3.79277E-02  1.76444E+01 -1.00000E+00  1.70988E-01
      21    -1     0     0   502   501  0.000000000E+00  0.000000000E+00  3.027420218E+02  3.027420218E+02  0.000000000E+00  0.00000E+00  9.000E+00
      21    -1     0     0   501   511  0.000000000E+00  0.000000000E+00 -7.752897258E+02  7.752897258E+02  0.000000000E+00  0.00000E+00  9.000E+00
      25     1     1     2     0     0  1.502065535E+02 -2.126001821E+02 -1.882788406E+02  3.447241912E+02  1.250000000E+02  0.00000E+00  9.000E+00
      25     1     1     2     0     0 -1.674630732E+02  2.089206338E+02  1.270219495E+02  3.216384426E+02  1.250000000E+02  0.00000E+00  9.000E+00
      21     1     1     2   502   511  1.725651971E+01  3.679548300E+00 -4.112908128E+02  4.116691138E+02  0.000000000E+00  0.00000E+00  9.000E+00
#rwgt            1           1   1.8409194291487234E-002           5      299976           0
</event>
<event>
      5   9999  3.79277E-02  2.92193E+01 -1.00000E+00  1.53839E-01
      21    -1     0     0   502   512  0.000000000E+00  0.000000000E+00  1.501585596E+02  1.501585596E+02  0.000000000E+00  0.00000E+00  9.000E+00
      21    -1     0     0   501   502  0.000000000E+00  0.000000000E+00 -2.856757196E+02  2.856757196E+02  0.000000000E+00  0.00000E+00  9.000E+00
      25     1     1     2     0     0  1.347341928E+02  7.195061004E+01 -1.006591342E+02  2.215568873E+02  1.250000000E+02  0.00000E+00  9.000E+00
      25     1     1     2     0     0 -1.063906405E+02 -7.905071826E+01 -3.089997904E+01  1.847912150E+02  1.250000000E+02  0.00000E+00  9.000E+00
      21     1     1     2   501   512 -2.834355231E+01  7.100108223E+00 -3.958046754E+00  2.948617691E+01  2.021291847E-07  0.00000E+00  9.000E+00
#rwgt            1           1   3.8126380519706370E-002           5      300164           0
</event>
<event>
      5   9999  3.79277E-02  1.49178E+01 -1.00000E+00  1.77609E-01
      21    -1     0     0   502   501  0.000000000E+00  0.000000000E+00  3.404324464E+03  3.404324464E+03  0.000000000E+00  0.00000E+00  9.000E+00
      21    -1     0     0   511   502  0.000000000E+00  0.000000000E+00 -4.550591616E+01  4.550591616E+01  0.000000000E+00  0.00000E+00  9.000E+00
      25     1     1     2     0     0 -9.540840179E+01  9.934381778E+01  1.130964982E+03  1.146158256E+03  1.250000000E+02  0.00000E+00  9.000E+00
      25     1     1     2     0     0  8.152851477E+01 -9.387656104E+01  2.260716872E+03  2.267581417E+03  1.250000000E+02  0.00000E+00  9.000E+00
      21     1     1     2   511   501  1.387988702E+01 -5.467256746E+00 -3.286330683E+01  3.609070650E+01  3.693564745E-06  0.00000E+00  9.000E+00
#rwgt            1           1   1.7963491218232583E-002           5      300280           0
</event>
<event>
      5   9999  3.79277E-02  1.45857E+01 -1.00000E+00  1.78537E-01
      21    -1     0     0   502   501  0.000000000E+00  0.000000000E+00  2.650971109E+02  2.650971109E+02  0.000000000E+00  0.00000E+00  9.000E+00
      21    -1     0     0   501   512  0.000000000E+00  0.000000000E+00 -3.093166371E+02  3.093166371E+02  0.000000000E+00  0.00000E+00  9.000E+00
      25     1     1     2     0     0  2.344690254E+02 -3.828685030E+01  5.356089553E+01  2.737432671E+02  1.250000000E+02  0.00000E+00  9.000E+00
      25     1     1     2     0     0 -2.373031396E+02  2.397913694E+01 -8.881885130E+01  2.835517015E+02  1.250000000E+02  0.00000E+00  9.000E+00
      21     1     1     2   502   512  2.834114206E+00  1.430771336E+01 -8.961570372E+00  1.711877941E+01  3.153981341E-07  0.00000E+00  9.000E+00
#rwgt            1           1   5.2445643248646777E-002           5      300549           0
</event>
<event>
      5   9999  3.79277E-02  1.52669E+01 -1.00000E+00  1.76665E-01
      21    -1     0     0   502   501  0.000000000E+00  0.000000000E+00  7.922075127E+01  7.922075127E+01  0.000000000E+00  0.00000E+00  9.000E+00
      21    -1     0     0   501   511  0.000000000E+00  0.000000000E+00 -5.104691922E+02  5.104691922E+02  0.000000000E+00  0.00000E+00  9.000E+00
      25     1     1     2     0     0  1.352765806E+02  4.179910278E+01 -1.902988226E+02  2.681148264E+02  1.250000000E+02  0.00000E+00  9.000E+00
      25     1     1     2     0     0 -1.420340054E+02 -5.548903920E+01 -2.172702183E+02  2.934008179E+02  1.250000000E+02  0.00000E+00  9.000E+00
      21     1     1     2   502   511  6.757424779E+00  1.368993642E+01 -2.367939993E+01  2.817429911E+01  3.371747881E-07  0.00000E+00  9.000E+00
#rwgt            1           1   2.5726925878968583E-002           5      300757           0
</event>
<event>
      5   9999  3.79277E-02  1.51667E+01 -1.00000E+00  1.76932E-01
      21    -1     0     0   512   501  0.000000000E+00  0.000000000E+00  9.476835539E+01  9.476835539E+01  0.000000000E+00  0.00000E+00  9.000E+00
      21    -1     0     0   501   502  0.000000000E+00  0.000000000E+00 -1.498365450E+03  1.498365450E+03  0.000000000E+00  0.00000E+00  9.000E+00
      25     1     1     2     0     0  5.042906174E+01  1.153373194E+00 -7.353868026E+01  1.535492039E+02  1.250000000E+02  0.00000E+00  9.000E+00
      25     1     1     2     0     0 -5.998532724E+01 -1.293080145E+01 -1.380196254E+03  1.387202993E+03  1.250000000E+02  0.00000E+00  9.000E+00
      21     1     1     2   512   502  9.556265500E+00  1.177742826E+01  5.013783906E+01  5.238160872E+01  2.236564522E-06  0.00000E+00  9.000E+00
#rwgt            1           1   3.0343845484127656E-002           5      301035           0
</event>
<event>
      5   9999  3.79277E-02  3.01021E+01 -1.00000E+00  1.52937E-01
      21    -1     0     0   502   501  0.000000000E+00  0.000000000E+00  8.868931103E+01  8.868931103E+01  0.000000000E+00  0.00000E+00  9.000E+00
       2    -1     0     0   501     0  0.000000000E+00  0.000000000E+00 -1.346694713E+03  1.346694713E+03  0.000000000E+00  0.00000E+00  9.000E+00
      25     1     1     2     0     0  2.131764856E+01 -1.192499999E+02 -3.500512641E+02  3.909423130E+02  1.250000000E+02  0.00000E+00  9.000E+00
      25     1     1     2     0     0  2.019689964E+00  1.002366638E+02 -2.643011407E+01  1.624038757E+02  1.250000000E+02  0.00000E+00  9.000E+00
       2     1     1     2   502     0 -2.333733852E+01  1.901333610E+01 -8.815240237E+02  8.820378352E+02  1.525878906E-05  0.00000E+00  9.000E+00
#rwgt            1           1   5.1586714765330978E-002           5      301319           0
</event>
<event>
      5   9999  3.79277E-02  3.71183E+01 -1.00000E+00  1.46883E-01
      21    -1     0     0   502   501  0.000000000E+00  0.000000000E+00  1.198584829E+02  1.198584829E+02  0.000000000E+00  0.00000E+00  9.000E+00
      21    -1     0     0   501   511  0.000000000E+00  0.000000000E+00 -4.322719177E+02  4.322719177E+02  0.000000000E+00  0.00000E+00  9.000E+00
      25     1     1     2     0     0  1.310165216E+02  7.445852148E+01 -2.684872996E+02  3.322947944E+02  1.250000000E+02  0.00000E+00  9.000E+00
      25     1     1     2     0     0 -9.459820165E+01 -6.728386144E+01 -1.223378430E+01  1.710280774E+02  1.250000000E+02  0.00000E+00  9.000E+00
      21     1     1     2   502   511 -3.641831992E+01 -7.174660037E+00 -3.169235090E+01  4.880752891E+01  9.536743164E-07  0.00000E+00  9.000E+00
#rwgt            1           1   3.7474448194813215E-002           5      301436           0
</event>
<event>
      5   9999  3.79277E-02  3.10371E+02 -1.00000E+00  1.05115E-01
      21    -1     0     0   502   501  0.000000000E+00  0.000000000E+00  1.870324770E+03  1.870324770E+03  0.000000000E+00  0.00000E+00  9.000E+00
      21    -1     0     0   501   512  0.000000000E+00  0.000000000E+00 -2.141573951E+02  2.141573951E+02  0.000000000E+00  0.00000E+00  9.000E+00
      25     1     1     2     0     0  3.337692488E+02 -1.794980186E+02  2.542754938E+02  4.731833438E+02  1.250000000E+02  0.00000E+00  9.000E+00
      25     1     1     2     0     0 -1.440388003E+02  4.251242135E+02  1.002486629E+03  1.105478274E+03  1.250000000E+02  0.00000E+00  9.000E+00
      21     1     1     2   502   512 -1.897304485E+02 -2.456261949E+02  3.994052521E+02  5.058205473E+02  7.629394531E-06  0.00000E+00  9.000E+00
#rwgt            2          11   1.8083692949993214E-003           5      301525           0
</event>
<event>
      5   9999  3.79277E-02  5.12874E+01 -1.00000E+00  1.38449E-01
      21    -1     0     0   502   501  0.000000000E+00  0.000000000E+00  2.339060011E+02  2.339060011E+02  0.000000000E+00  0.00000E+00  9.000E+00
      21    -1     0     0   511   502  0.000000000E+00  0.000000000E+00 -6.432288800E+02  6.432288800E+02  0.000000000E+00  0.00000E+00  9.000E+00
      25     1     1     2     0     0 -4.573361836E+01  1.152170261E+02 -3.081113843E+02  3.548579323E+02  1.250000000E+02  0.00000E+00  9.000E+00
      25     1     1     2     0     0  7.580544610E+01 -1.567631351E+02  1.527371781E+02  2.632010482E+02  1.250000000E+02  0.00000E+00  9.000E+00
      21     1     1     2   511   501 -3.007182773E+01  4.154610898E+01 -2.539486727E+02  2.590759007E+02  3.814697266E-06  0.00000E+00  9.000E+00
#rwgt            1           1   2.8622582613859356E-002           5      301800           0
</event>
<event>
      5   9999  3.79277E-02  3.90434E+01 -1.00000E+00  1.45495E-01
      21    -1     0     0   512   501  0.000000000E+00  0.000000000E+00  9.732250394E+01  9.732250394E+01  0.000000000E+00  0.00000E+00  9.000E+00
      21    -1     0     0   501   502  0.000000000E+00  0.000000000E+00 -7.674448495E+02  7.674448495E+02  0.000000000E+00  0.00000E+00  9.000E+00
      25     1     1     2     0     0  6.935856271E+01 -7.996696534E+01 -6.037962877E+02  6.256199188E+02  1.250000000E+02  0.00000E+00  9.000E+00
      25     1     1     2     0     0 -1.070135550E+02  9.028612995E+01 -3.957664970E+01  1.918197003E+02  1.250000000E+02  0.00000E+00  9.000E+00
      21     1     1     2   512   502  3.765499230E+01 -1.031916461E+01 -2.674940818E+01  4.732773437E+01  6.743495762E-07  0.00000E+00  9.000E+00
#rwgt            1           1   3.5461239057022496E-002           5      301963           0
</event>
<event>
      5   9999  3.79277E-02  7.86775E+01 -1.00000E+00  1.28701E-01
      21    -1     0     0   502   511  0.000000000E+00  0.000000000E+00  2.067498447E+02  2.067498447E+02  0.000000000E+00  0.00000E+00  9.000E+00
      21    -1     0     0   501   502  0.000000000E+00  0.000000000E+00 -3.343704691E+02  3.343704691E+02  0.000000000E+00  0.00000E+00  9.000E+00
      25     1     1     2     0     0 -1.628393240E+02  1.402943351E+02 -1.060754049E+02  2.703259836E+02  1.250000000E+02  0.00000E+00  9.000E+00
      25     1     1     2     0     0  8.852351823E+01 -1.144619779E+02 -1.748336707E+01  1.920120459E+02  1.250000000E+02  0.00000E+00  9.000E+00
      21     1     1     2   501   511  7.431580574E+01 -2.583235726E+01 -4.061852357E+00  7.878228423E+01  1.415531884E-06  0.00000E+00  9.000E+00
#rwgt            1           1   3.0734881997613393E-002           5      302127           0
</event>
<event>
      5   9999  3.79277E-02  7.70728E+01 -1.00000E+00  1.29138E-01
      21    -1     0     0   502   501  0.000000000E+00  0.000000000E+00  5.863419118E+02  5.863419118E+02  0.000000000E+00  0.00000E+00  9.000E+00
       1    -1     0     0   501     0  0.000000000E+00  0.000000000E+00 -2.613619068E+03  2.613619068E+03  0.000000000E+00  0.00000E+00  9.000E+00
      25     1     1     2     0     0  2.145694581E+02 -4.176091845E+01  4.106810925E+02  4.817343525E+02  1.250000000E+02  0.00000E+00  9.000E+00
      25     1     1     2     0     0 -1.410719274E+02  6.496287004E+01  6.833291439E+01  2.107506829E+02  1.250000000E+02  0.00000E+00  9.000E+00
       1     1     1     2   502     0 -7.349753073E+01 -2.320195159E+01 -2.506291163E+03  2.507475945E+03  0.000000000E+00  0.00000E+00  9.000E+00
#rwgt            1           1   2.5969643074750779E-002           5      302213           0
</event>
<event>
      5   9999  3.79277E-02  1.46652E+01 -1.00000E+00  1.78312E-01
      21    -1     0     0   502   501  0.000000000E+00  0.000000000E+00  6.251881866E+02  6.251881866E+02  0.000000000E+00  0.00000E+00  9.000E+00
      21    -1     0     0   501   511  0.000000000E+00  0.000000000E+00 -1.152169886E+02  1.152169886E+02  0.000000000E+00  0.00000E+00  9.000E+00
      25     1     1     2     0     0 -1.546544559E+02  1.537031667E+02  2.969859995E+02  3.890608539E+02  1.250000000E+02  0.00000E+00  9.000E+00
      25     1     1     2     0     0  1.609077569E+02 -1.669683044E+02  2.086555550E+02  3.360533611E+02  1.250000000E+02  0.00000E+00  9.000E+00
      21     1     1     2   502   511 -6.253300972E+00  1.326513770E+01  4.329643522E+00  1.529096021E+01  2.598106231E-07  0.00000E+00  9.000E+00
#rwgt            1           1   3.8636407345110091E-002           5      302314           0
</event>
<event>
      5   9999  3.79277E-02  4.92888E+00 -1.00000E+00  2.43784E-01
      21    -1     0     0   502   501  0.000000000E+00  0.000000000E+00  4.304419414E+02  4.304419414E+02  0.000000000E+00  0.00000E+00  9.000E+00
      21    -1     0     0   512   502  0.000000000E+00  0.000000000E+00 -8.660348794E+01  8.660348794E+01  0.000000000E+00  0.00000E+00  9.000E+00
      25     1     1     2     0     0 -1.117461501E+02  8.511273762E+01  1.172026804E+02  2.215690603E+02  1.250000000E+02  0.00000E+00  9.000E+00
      25     1     1     2     0     0  1.084647689E+02 -8.143491690E+01  2.227247817E+02  2.891843359E+02  1.250000000E+02  0.00000E+00  9.000E+00
      21     1     1     2   512   501  3.281381206E+00 -3.677820727E+00  3.910991370E+00  6.292033170E+00  9.424321831E-08  0.00000E+00  9.000E+00
#rwgt            1           1   3.5851430469283421E-002           5      302636           0
</event>
<event>
      5   9999  3.79277E-02  6.08201E+01 -1.00000E+00  1.34389E-01
      21    -1     0     0   502   511  0.000000000E+00  0.000000000E+00  2.383895109E+02  2.383895109E+02  0.000000000E+00  0.00000E+00  9.000E+00
      21    -1     0     0   501   502  0.000000000E+00  0.000000000E+00 -5.860728111E+02  5.860728111E+02  0.000000000E+00  0.00000E+00  9.000E+00
      25     1     1     2     0     0 -2.846383749E+02 -2.557404685E+01 -2.599690114E+02  4.060565518E+02  1.250000000E+02  0.00000E+00  9.000E+00
      25     1     1     2     0     0  2.402392370E+02  6.714084219E+01 -1.618162284E+02  3.225403470E+02  1.250000000E+02  0.00000E+00  9.000E+00
      21     1     1     2   501   511  4.439913789E+01 -4.156679534E+01  7.410193963E+01  9.586542326E+01  1.348699152E-06  0.00000E+00  9.000E+00
#rwgt            1           1   2.5241190732633912E-002           5      302978           0
</event>
<event>
      5   9999  3.79277E-02  1.50964E+01 -1.00000E+00  1.77122E-01
      21    -1     0     0   512   501  0.000000000E+00  0.000000000E+00  1.027268203E+02  1.027268203E+02  0.000000000E+00  0.00000E+00  9.000E+00
      21    -1     0     0   501   502  0.000000000E+00  0.000000000E+00 -4.115638799E+02  4.115638799E+02  0.000000000E+00  0.00000E+00  9.000E+00
      25     1     1     2     0     0  7.395128519E+01  9.237780528E+00  1.320710103E+01  1.461285622E+02  1.250000000E+02  0.00000E+00  9.000E+00
      25     1     1     2     0     0 -5.925511686E+01 -1.269107904E+01 -3.243918229E+02  3.528842404E+02  1.250000000E+02  0.00000E+00  9.000E+00
      21     1     1     2   512   502 -1.469616833E+01  3.453298509E+00  2.347662293E+00  1.527789751E+01  8.940696716E-08  0.00000E+00  9.000E+00
#rwgt            1           1   3.8804669980406652E-002           5      303080           0
</event>
<event>
      5   9999  3.79277E-02  7.54246E+01 -1.00000E+00  1.29600E-01
      -4    -1     0     0     0   501  0.000000000E+00  0.000000000E+00  2.152593511E+02  2.152593511E+02  0.000000000E+00  0.00000E+00  9.000E+00
      21    -1     0     0   501   502  0.000000000E+00  0.000000000E+00 -2.339783427E+02  2.339783427E+02  0.000000000E+00  0.00000E+00  9.000E+00
      25     1     1     2     0     0  6.312369230E+00 -2.353562183E+01  2.920802587E+01  1.306594056E+02  1.250000000E+02  0.00000E+00  9.000E+00
      25     1     1     2     0     0 -6.740815371E+01 -2.069297070E+01 -1.393632451E+02  2.000479250E+02  1.250000000E+02  0.00000E+00  9.000E+00
      -4     1     1     2     0   502  6.109578448E+01  4.422859252E+01  9.143622759E+01  1.185303632E+02  1.348699152E-06  0.00000E+00  9.000E+00
#rwgt            1           1  0.11263442510662561                5      303409           0
</event>
<event>
      5   9999  3.79277E-02  4.47275E+01 -1.00000E+00  1.41894E-01
      21    -1     0     0   502   501  0.000000000E+00  0.000000000E+00  4.444177631E+02  4.444177631E+02  0.000000000E+00  0.00000E+00  9.000E+00
       1    -1     0     0   501     0  0.000000000E+00  0.000000000E+00 -1.650630547E+03  1.650630547E+03  0.000000000E+00  0.00000E+00  9.000E+00
      25     1     1     2     0     0 -4.148520530E+00 -1.624244509E+02 -2.849186457E+01  2.069678691E+02  1.250000000E+02  0.00000E+00  9.000E+00
      25     1     1     2     0     0 -4.038685284E+01  1.665656026E+02  3.231426222E+02  3.865505816E+02  1.250000000E+02  0.00000E+00  9.000E+00
       1     1     1     2   502     0  4.453537337E+01 -4.141151638E+00 -1.500863542E+03  1.501529859E+03  3.051757812E-05  0.00000E+00  9.000E+00
#rwgt            1           1   4.3474892806719422E-002           5      303586           0
</event>
<event>
      5   9999  3.79277E-02  1.72306E+02 -1.00000E+00  1.14056E-01
      21    -1     0     0   502   501  0.000000000E+00  0.000000000E+00  9.004930227E+01  9.004930227E+01  0.000000000E+00  0.00000E+00  9.000E+00
      21    -1     0     0   501   511  0.000000000E+00  0.000000000E+00 -9.454571664E+02  9.454571664E+02  0.000000000E+00  0.00000E+00  9.000E+00
      25     1     1     2     0     0 -7.443499387E+01  2.495591873E+01 -7.168012938E+01  1.640926785E+02  1.250000000E+02  0.00000E+00  9.000E+00
      25     1     1     2     0     0  5.564113208E+01  1.463223854E+02 -5.104219617E+02  5.483263216E+02  1.250000000E+02  0.00000E+00  9.000E+00
      21     1     1     2   502   511  1.879386180E+01 -1.712783041E+02 -2.733057731E+02  3.230874685E+02  6.607249480E-06  0.00000E+00  9.000E+00
#rwgt            1           1   4.2763801070724930E-002           5      303685           0
</event>
<event>
      5   9999  3.79277E-02  2.52286E+02 -1.00000E+00  1.08095E-01
      21    -1     0     0   502   501  0.000000000E+00  0.000000000E+00  8.769927879E+02  8.769927879E+02  0.000000000E+00  0.00000E+00  9.000E+00
      21    -1     0     0   501   512  0.000000000E+00  0.000000000E+00 -7.775258822E+02  7.775258822E+02  0.000000000E+00  0.00000E+00  9.000E+00
      25     1     1     2     0     0  2.819972306E+02 -6.347586307E+02 -2.476012516E+02  7.479119849E+02  1.250000000E+02  0.00000E+00  9.000E+00
      25     1     1     2     0     0 -1.118553598E+02  4.484795859E+02  4.274139802E+02  6.418358598E+02  1.250000000E+02  0.00000E+00  9.000E+00
      21     1     1     2   502   512 -1.701418708E+02  1.862790448E+02 -8.034582292E+01  2.647708254E+02  3.932099939E-06  0.00000E+00  9.000E+00
#rwgt            1           1   4.8412697640900199E-002           5      303721           0
</event>
<event>
      5   9999 -3.79277E-02  1.67006E+02 -1.00000E+00  1.14575E-01
       1    -1     0     0   502     0  0.000000000E+00  0.000000000E+00  9.373678921E+02  9.373678921E+02  0.000000000E+00  0.00000E+00  9.000E+00
      21    -1     0     0   501   502  0.000000000E+00  0.000000000E+00 -3.046277899E+02  3.046277899E+02  0.000000000E+00  0.00000E+00  9.000E+00
      25     1     1     2     0     0  1.033764332E+02 -1.149266534E+02  3.304029940E+02  3.855981860E+02  1.250000000E+02  0.00000E+00  9.000E+00
      25     1     1     2     0     0 -3.843109614E+01  2.687871349E+02 -1.779715405E+02  3.478826559E+02  1.250000000E+02  0.00000E+00  9.000E+00
       1     1     1     2   501     0 -6.494533701E+01 -1.538604815E+02  4.803086488E+02  5.085148402E+02  5.394796609E-06  0.00000E+00  9.000E+00
#rwgt            1           1  -6.3533409849433637E-003           5      303827           0
</event>
<event>
      5   9999  3.79277E-02  1.76747E+02 -1.00000E+00  1.13638E-01
      21    -1     0     0   511   501  0.000000000E+00  0.000000000E+00  1.358360800E+02  1.358360800E+02  0.000000000E+00  0.00000E+00  9.000E+00
      21    -1     0     0   501   502  0.000000000E+00  0.000000000E+00 -1.017044179E+03  1.017044179E+03  0.000000000E+00  0.00000E+00  9.000E+00
      25     1     1     2     0     0 -2.607399393E+02  2.581511256E+01 -5.228978391E+02  5.980793309E+02  1.250000000E+02  0.00000E+00  9.000E+00
      25     1     1     2     0     0  8.993361975E+01  1.962413403E+01 -3.440854253E+02  3.774823737E+02  1.250000000E+02  0.00000E+00  9.000E+00
      21     1     1     2   511   502  1.708063195E+02 -4.543924660E+01 -1.422483507E+01  1.773185547E+02  3.631483605E-06  0.00000E+00  9.000E+00
#rwgt            1           1   3.0628487665493937E-002           5      303966           0
</event>
<event>
      5   9999  3.79277E-02  3.77872E+01 -1.00000E+00  1.46390E-01
      21    -1     0     0   502   501  0.000000000E+00  0.000000000E+00  1.493120955E+02  1.493120955E+02  0.000000000E+00  0.00000E+00  9.000E+00
       1    -1     0     0   501     0  0.000000000E+00  0.000000000E+00 -2.854444094E+02  2.854444094E+02  0.000000000E+00  0.00000E+00  9.000E+00
      25     1     1     2     0     0  1.762333859E+00 -1.019176872E+02 -1.302930167E+02  2.073441366E+02  1.250000000E+02  0.00000E+00  9.000E+00
      25     1     1     2     0     0 -3.915920512E+01  1.073350071E+02  3.375466723E+01  1.726807014E+02  1.250000000E+02  0.00000E+00  9.000E+00
       1     1     1     2   502     0  3.739687126E+01 -5.417319840E+00 -3.959396447E+01  5.473166685E+01  1.168007728E-06  0.00000E+00  9.000E+00
#rwgt            1           1   4.1224851207062596E-002           5      304121           0
</event>
<event>
      5   9999  3.79277E-02  9.82763E+00 -1.00000E+00  1.96634E-01
      21    -1     0     0   502   501  0.000000000E+00  0.000000000E+00  5.273167212E+01  5.273167212E+01  0.000000000E+00  0.00000E+00  9.000E+00
      21    -1     0     0   511   502  0.000000000E+00  0.000000000E+00 -8.666736380E+02  8.666736380E+02  0.000000000E+00  0.00000E+00  9.000E+00
      25     1     1     2     0     0  1.289511507E+02 -1.047380680E+02 -4.907528176E+02  5.329744742E+02  1.250000000E+02  0.00000E+00  9.000E+00
      25     1     1     2     0     0 -1.237647795E+02  9.639038514E+01 -2.963657886E+02  3.578638116E+02  1.250000000E+02  0.00000E+00  9.000E+00
      21     1     1     2   511   501 -5.186371152E+00  8.347682840E+00 -2.682335976E+01  2.856702441E+01  0.000000000E+00  0.00000E+00  9.000E+00
#rwgt            1           1   3.9673383376620089E-002           5      304341           0
</event>
<event>
      5   9999  3.79277E-02  1.09831E+02 -1.00000E+00  1.22024E-01
      21    -1     0     0   512   501  0.000000000E+00  0.000000000E+00  7.404507154E+01  7.404507154E+01  0.000000000E+00  0.00000E+00  9.000E+00
      21    -1     0     0   501   502  0.000000000E+00  0.000000000E+00 -1.747591476E+03  1.747591476E+03  0.000000000E+00  0.00000E+00  9.000E+00
      25     1     1     2     0     0 -1.028159991E+02  1.310560582E+02 -2.909648677E+02  3.578161180E+02  1.250000000E+02  0.00000E+00  9.000E+00
      25     1     1     2     0     0  9.677481903E+01 -2.139177641E+01 -1.334374118E+03  1.343875835E+03  1.250000000E+02  0.00000E+00  9.000E+00
      21     1     1     2   512   502  6.041180047E+00 -1.096642818E+02 -4.820741931E+01  1.199445949E+02  2.939421655E-06  0.00000E+00  9.000E+00
#rwgt            1           1   4.3688470546315063E-002           5      304539           0
</event>
<event>
      5   9999  3.79277E-02  2.12102E+01 -1.00000E+00  1.64291E-01
      21    -1     0     0   502   501  0.000000000E+00  0.000000000E+00  9.278839974E+02  9.278839974E+02  0.000000000E+00  0.00000E+00  9.000E+00
      21    -1     0     0   511   502  0.000000000E+00  0.000000000E+00 -2.058166247E+02  2.058166247E+02  0.000000000E+00  0.00000E+00  9.000E+00
      25     1     1     2     0     0 -1.964160789E+02 -2.690186193E+02  2.285547373E+02  4.228623435E+02  1.250000000E+02  0.00000E+00  9.000E+00
      25     1     1     2     0     0  2.175908543E+02  2.702432222E+02  5.433460711E+02  6.566788652E+02  1.250000000E+02  0.00000E+00  9.000E+00
      21     1     1     2   511   501 -2.117477537E+01 -1.224602883E+00 -4.983343557E+01  5.415941345E+01  1.168007728E-06  0.00000E+00  9.000E+00
#rwgt            1           1   2.8894947512428732E-002           5      304666           0
</event>
<event>
      5   9999  3.79277E-02  8.79836E+01 -1.00000E+00  1.26381E-01
       2    -1     0     0   502     0  0.000000000E+00  0.000000000E+00  1.039157892E+03  1.039157892E+03  0.000000000E+00  0.00000E+00  9.000E+00
      21    -1     0     0   501   502  0.000000000E+00  0.000000000E+00 -1.193640114E+02  1.193640114E+02  0.000000000E+00  0.00000E+00  9.000E+00
      25     1     1     2     0     0 -3.349083944E+01 -1.722509155E+02  5.634831633E+01  2.226929433E+02  1.250000000E+02  0.00000E+00  9.000E+00
      25     1     1     2     0     0  6.292922343E+01  8.933829869E+01  1.729332501E+02  2.397338686E+02  1.250000000E+02  0.00000E+00  9.000E+00
       2     1     1     2   501     0 -2.943838400E+01  8.291261686E+01  6.905123146E+02  6.960950920E+02  0.000000000E+00  0.00000E+00  9.000E+00
#rwgt            1           1   4.1111761963198989E-002           5      304928           0
</event>
<event>
      5   9999  3.79277E-02  1.83640E+02 -1.00000E+00  1.13014E-01
      21    -1     0     0   502   501  0.000000000E+00  0.000000000E+00  2.740333473E+02  2.740333473E+02  0.000000000E+00  0.00000E+00  9.000E+00
      21    -1     0     0   501   511  0.000000000E+00  0.000000000E+00 -7.086010187E+02  7.086010187E+02  0.000000000E+00  0.00000E+00  9.000E+00
      25     1     1     2     0     0 -1.292330829E+02  2.993872011E+02 -1.020486180E+02  3.638307385E+02  1.250000000E+02  0.00000E+00  9.000E+00
      25     1     1     2     0     0  1.236788965E+02 -1.158313828E+02  2.974019890E+01  2.126566672E+02  1.250000000E+02  0.00000E+00  9.000E+00
      21     1     1     2   502   511  5.554186331E+00 -1.835558183E+02 -3.622592523E+02  4.061469602E+02  5.394796609E-06  0.00000E+00  9.000E+00
#rwgt            1           1   4.7536202610699137E-002           5      305012           0
</event>
<event>
      5   9999  3.79277E-02  1.93958E+02 -1.00000E+00  1.12135E-01
      21    -1     0     0   512   501  0.000000000E+00  0.000000000E+00  1.314970221E+02  1.314970221E+02  0.000000000E+00  0.00000E+00  9.000E+00
      21    -1     0     0   501   502  0.000000000E+00  0.000000000E+00 -9.215095398E+02  9.215095398E+02  0.000000000E+00  0.00000E+00  9.000E+00
      25     1     1     2     0     0 -1.184862324E+02  5.826528749E+01 -3.149832615E+02  3.636939455E+02  1.250000000E+02  0.00000E+00  9.000E+00
      25     1     1     2     0     0  9.458670904E+01 -2.507451083E+02 -3.515607186E+02  4.593905677E+02  1.250000000E+02  0.00000E+00  9.000E+00
      21     1     1     2   512   502  2.389952337E+01  1.924798209E+02 -1.234685376E+02  2.299220486E+02  3.303624740E-06  0.00000E+00  9.000E+00
#rwgt            1           1   3.5593863676823705E-002           5      305050           0
</event>
<event>
      5   9999  3.79277E-02  3.35447E+01 -1.00000E+00  1.49746E-01
      21    -1     0     0   502   501  0.000000000E+00  0.000000000E+00  1.579791235E+03  1.579791235E+03  0.000000000E+00  0.00000E+00  9.000E+00
      21    -1     0     0   511   502  0.000000000E+00  0.000000000E+00 -2.025810593E+02  2.025810593E+02  0.000000000E+00  0.00000E+00  9.000E+00
      25     1     1     2     0     0  1.568344988E+02  3.415185169E+01  2.710413150E+02  3.388979248E+02  1.250000000E+02  0.00000E+00  9.000E+00
      25     1     1     2     0     0 -1.629465365E+02 -1.168638321E+00  1.264784731E+03  1.281350208E+03  1.250000000E+02  0.00000E+00  9.000E+00
      21     1     1     2   511   501  6.112037778E+00 -3.298321337E+01 -1.586158704E+02  1.621241614E+02  4.672030912E-06  0.00000E+00  9.000E+00
#rwgt            1           1   6.1830982951680748E-002           5      305271           0
</event>
<event>
      5   9999  3.79277E-02  6.17663E+01 -1.00000E+00  1.34034E-01
      21    -1     0     0   502   501  0.000000000E+00  0.000000000E+00  2.203631742E+03  2.203631742E+03  0.000000000E+00  0.00000E+00  9.000E+00
       5    -1     0     0   501     0  0.000000000E+00  0.000000000E+00 -2.435240571E+01  2.435240571E+01  0.000000000E+00  0.00000E+00  9.000E+00
      25     1     1     2     0     0 -1.220254000E+02  3.764858880E+01  4.857693966E+02  5.175949393E+02  1.250000000E+02  0.00000E+00  9.000E+00
      25     1     1     2     0     0  6.059843593E+01 -4.411391866E+01  1.504490165E+03  1.511533614E+03  1.250000000E+02  0.00000E+00  9.000E+00
       5     1     1     2   502     0  6.142696407E+01  6.465329859E+00  1.890197747E+02  1.988555949E+02  2.697398305E-06  0.00000E+00  9.000E+00
#rwgt            1           1  0.11643100426797157                5      305373           0
</event>
<event>
      5   9999  3.79277E-02  1.78197E+01 -1.00000E+00  1.70614E-01
      21    -1     0     0   502   501  0.000000000E+00  0.000000000E+00  1.170266767E+02  1.170266767E+02  0.000000000E+00  0.00000E+00  9.000E+00
      21    -1     0     0   511   502  0.000000000E+00  0.000000000E+00 -3.930161588E+02  3.930161588E+02  0.000000000E+00  0.00000E+00  9.000E+00
      25     1     1     2     0     0  5.189062524E+01 -7.792048817E+01 -2.324265109E+02  2.800202179E+02  1.250000000E+02  0.00000E+00  9.000E+00
      25     1     1     2     0     0 -6.893782628E+01  7.273077916E+01  2.233373819E+01  1.617590368E+02  1.250000000E+02  0.00000E+00  9.000E+00
      21     1     1     2   511   501  1.704720104E+01  5.189709012E+00 -6.589670941E+01  6.826358073E+01  9.536743164E-07  0.00000E+00  9.000E+00
#rwgt            2          11   1.0287328715593829E-003           5      305621           0
</event>
<event>
      5   9999  3.79277E-02  2.56828E+02 -1.00000E+00  1.07832E-01
      21    -1     0     0   502   501  0.000000000E+00  0.000000000E+00  7.096409925E+02  7.096409925E+02  0.000000000E+00  0.00000E+00  9.000E+00
      21    -1     0     0   512   502  0.000000000E+00  0.000000000E+00 -8.048894556E+02  8.048894556E+02  0.000000000E+00  0.00000E+00  9.000E+00
      25     1     1     2     0     0 -2.843457341E+01  2.425766719E+01  8.255045647E+01  1.543908587E+02  1.250000000E+02  0.00000E+00  9.000E+00
      25     1     1     2     0     0 -1.372269193E+02  1.719999892E+02  5.407696044E+02  5.970527520E+02  1.250000000E+02  0.00000E+00  9.000E+00
      21     1     1     2   512   501  1.656614927E+02 -1.962576563E+02 -7.185685239E+02  7.630868374E+02  0.000000000E+00  0.00000E+00  9.000E+00
#rwgt            2          11   2.9513710959518306E-003           5      305731           0
</event>
<event>
      5   9999  3.79277E-02  6.05704E+01 -1.00000E+00  1.34484E-01
      21    -1     0     0   502   501  0.000000000E+00  0.000000000E+00  8.098379701E+02  8.098379701E+02  0.000000000E+00  0.00000E+00  9.000E+00
      21    -1     0     0   501   511  0.000000000E+00  0.000000000E+00 -2.724512835E+02  2.724512835E+02  0.000000000E+00  0.00000E+00  9.000E+00
      25     1     1     2     0     0 -8.258009166E+01 -1.494693851E+02  3.618949329E+02  4.192296639E+02  1.250000000E+02  0.00000E+00  9.000E+00
      25     1     1     2     0     0  1.116806485E+02  9.634751804E+01  3.926193514E+02  4.376418246E+02  1.250000000E+02  0.00000E+00  9.000E+00
      21     1     1     2   502   511 -2.910055685E+01  5.312186705E+01 -2.171275977E+02  2.254177651E+02  0.000000000E+00  0.00000E+00  9.000E+00
#rwgt            1           1   3.6627355983037707E-002           5      305766           0
</event>
<event>
      5   9999  3.79277E-02  2.74287E+01 -1.00000E+00  1.55793E-01
       1    -1     0     0   502     0  0.000000000E+00  0.000000000E+00  1.643739669E+03  1.643739669E+03  0.000000000E+00  0.00000E+00  9.000E+00
      21    -1     0     0   501   502  0.000000000E+00  0.000000000E+00 -1.179556818E+03  1.179556818E+03  0.000000000E+00  0.00000E+00  9.000E+00
      25     1     1     2     0     0  5.306049291E+01 -8.662080359E+01 -1.023326805E+03  1.035925349E+03  1.250000000E+02  0.00000E+00  9.000E+00
      25     1     1     2     0     0 -2.711981134E+01  7.770934531E+01 -1.124345984E+02  1.871917879E+02  1.250000000E+02  0.00000E+00  9.000E+00
       1     1     1     2   501     0 -2.594068157E+01  8.911458280E+00  1.599944255E+03  1.600179350E+03  3.051757812E-05  0.00000E+00  9.000E+00
#rwgt            1           1   3.5789098367102465E-002           5      305860           0
</event>
<event>
      5   9999  3.79277E-02  2.09399E+01 -1.00000E+00  1.64740E-01
      21    -1     0     0   511   501  0.000000000E+00  0.000000000E+00  9.767418130E+01  9.767418130E+01  0.000000000E+00  0.00000E+00  9.000E+00
      21    -1     0     0   501   502  0.000000000E+00  0.000000000E+00 -5.222199950E+02  5.222199950E+02  0.000000000E+00  0.00000E+00  9.000E+00
      25     1     1     2     0     0 -1.375269111E+02 -6.806789043E+01 -3.493830921E+02  4.015475489E+02  1.250000000E+02  0.00000E+00  9.000E+00
      25     1     1     2     0     0  1.174685403E+02  6.205626502E+01 -5.843309095E+01  1.915444181E+02  1.250000000E+02  0.00000E+00  9.000E+00
      21     1     1     2   511   502  2.005837087E+01  6.011625409E+00 -1.672963071E+01  2.680220935E+01  0.000000000E+00  0.00000E+00  9.000E+00
#rwgt            1           1   2.9280620410406674E-002           5      306024           0
</event>
<event>
      5   9999  3.79277E-02  7.94161E+01 -1.00000E+00  1.28504E-01
       2    -1     0     0   502     0  0.000000000E+00  0.000000000E+00  2.499856306E+03  2.499856306E+03  0.000000000E+00  0.00000E+00  9.000E+00
      21    -1     0     0   501   502  0.000000000E+00  0.000000000E+00 -4.863713144E+02  4.863713144E+02  0.000000000E+00  0.00000E+00  9.000E+00
      25     1     1     2     0     0  9.462303275E+01  7.297157437E+01  7.270998195E+01  1.875902729E+02  1.250000000E+02  0.00000E+00  9.000E+00
      25     1     1     2     0     0 -3.022372098E+01 -1.194435489E+02 -4.102779544E+02  4.462434700E+02  1.250000000E+02  0.00000E+00  9.000E+00
       2     1     1     2   501     0 -6.439931177E+01  4.647197450E+01  2.351052964E+03  2.352393877E+03  3.051757812E-05  0.00000E+00  9.000E+00
#rwgt            1           1   3.7877826848538632E-002           5      306183           0
</event>
<event>
      5   9999  3.79277E-02  1.00921E+02 -1.00000E+00  1.23649E-01
      21    -1     0     0   502   501  0.000000000E+00  0.000000000E+00  2.725256900E+02  2.725256900E+02  0.000000000E+00  0.00000E+00  9.000E+00
      21    -1     0     0   511   502  0.000000000E+00  0.000000000E+00 -6.813033307E+02  6.813033307E+02  0.000000000E+00  0.00000E+00  9.000E+00
      25     1     1     2     0     0  2.189065464E+00  3.324724157E+02 -2.812195858E+02  4.530476296E+02  1.250000000E+02  0.00000E+00  9.000E+00
      25     1     1     2     0     0 -1.030274854E+02 -3.283886761E+02 -4.217771537E+01  3.685888564E+02  1.250000000E+02  0.00000E+00  9.000E+00
      21     1     1     2   511   501  1.008384199E+02 -4.083739585E+00 -8.538033961E+01  1.321925348E+02  2.336015456E-06  0.00000E+00  9.000E+00
#rwgt            1           1   4.2544660664030280E-002           5      306294           0
</event>
<event>
      5   9999  3.79277E-02  1.99395E+01 -1.00000E+00  1.66478E-01
      21    -1     0     0   502   512  0.000000000E+00  0.000000000E+00  2.305222703E+02  2.305222703E+02  0.000000000E+00  0.00000E+00  9.000E+00
      21    -1     0     0   501   502  0.000000000E+00  0.000000000E+00 -2.225198824E+02  2.225198824E+02  0.000000000E+00  0.00000E+00  9.000E+00
      25     1     1     2     0     0 -1.488959477E+02 -8.919575323E+01 -6.174448030E+01  2.226280901E+02  1.250000000E+02  0.00000E+00  9.000E+00
      25     1     1     2     0     0  1.291395955E+02  8.649912769E+01  6.048780833E+01  2.084296264E+02  1.250000000E+02  0.00000E+00  9.000E+00
      21     1     1     2   501   512  1.975635223E+01  2.696625540E+00  9.259059932E+00  2.198443617E+01  4.298152060E-07  0.00000E+00  9.000E+00
#rwgt            1           1   4.7702885330891849E-002           5      306370           0
</event>
<event>
      5   9999  3.79277E-02  1.18492E+01 -1.00000E+00  1.87607E-01
      21    -1     0     0   502   511  0.000000000E+00  0.000000000E+00  4.879650093E+01  4.879650093E+01  0.000000000E+00  0.00000E+00  9.000E+00
      21    -1     0     0   501   502  0.000000000E+00  0.000000000E+00 -7.639665383E+02  7.639665383E+02  0.000000000E+00  0.00000E+00  9.000E+00
      25     1     1     2     0     0  9.468558743E+00  8.825325436E+01 -3.132953148E+02  3.487939862E+02  1.250000000E+02  0.00000E+00  9.000E+00
      25     1     1     2     0     0 -2.125185508E+01 -8.950162936E+01 -4.168896803E+02  4.448417567E+02  1.250000000E+02  0.00000E+00  9.000E+00
      21     1     1     2   501   511  1.178329634E+01  1.248374999E+00  1.501495767E+01  1.912729637E+01  5.057621821E-07  0.00000E+00  9.000E+00
#rwgt            1           1   3.1538922257690380E-002           5      306620           0
</event>
<event>
      5   9999  3.79277E-02  1.15156E+01 -1.00000E+00  1.88929E-01
      21    -1     0     0   512   501  0.000000000E+00  0.000000000E+00  2.768564047E+01  2.768564047E+01  0.000000000E+00  0.00000E+00  9.000E+00
      21    -1     0     0   501   502  0.000000000E+00  0.000000000E+00 -1.220041216E+03  1.220041216E+03  0.000000000E+00  0.00000E+00  9.000E+00
      25     1     1     2     0     0  1.247954296E+01  1.617799938E+01 -9.137933194E+02  9.225295102E+02  1.250000000E+02  0.00000E+00  9.000E+00
      25     1     1     2     0     0 -1.225188532E+01 -2.769137964E+01 -2.845143537E+02  3.122344290E+02  1.250000000E+02  0.00000E+00  9.000E+00
      21     1     1     2   512   502 -2.276576391E-01  1.151338026E+01  5.952097701E+00  1.296291711E+01  6.194296387E-07  0.00000E+00  9.000E+00
#rwgt            1           1  0.14100994486106563                5      306822           0
</event>
<event>
      5   9999  3.79277E-02  3.64899E+01 -1.00000E+00  1.47358E-01
      21    -1     0     0   502   511  0.000000000E+00  0.000000000E+00  7.139687246E+01  7.139687246E+01  0.000000000E+00  0.00000E+00  9.000E+00
      21    -1     0     0   501   502  0.000000000E+00  0.000000000E+00 -1.053392435E+03  1.053392435E+03  0.000000000E+00  0.00000E+00  9.000E+00
      25     1     1     2     0     0  1.483430433E+02 -3.932994845E+01 -2.206316036E+02  2.964048040E+02  1.250000000E+02  0.00000E+00  9.000E+00
      25     1     1     2     0     0 -1.836186287E+02  4.866528971E+01 -7.584194453E+02  7.917759571E+02  1.250000000E+02  0.00000E+00  9.000E+00
      21     1     1     2   501   511  3.527558544E+01 -9.335341253E+00 -2.944513898E+00  3.660854663E+01  5.462855929E-07  0.00000E+00  9.000E+00
#rwgt            1           1   3.2651730586178866E-002           5      307005           0
</event>
<event>
      5   9999  3.79277E-02  2.11349E+01 -1.00000E+00  1.64415E-01
      21    -1     0     0   502   501  0.000000000E+00  0.000000000E+00  5.019441614E+02  5.019441614E+02  0.000000000E+00  0.00000E+00  9.000E+00
      21    -1     0     0   501   512  0.000000000E+00  0.000000000E+00 -7.523793627E+01  7.523793627E+01  0.000000000E+00  0.00000E+00  9.000E+00
      25     1     1     2     0     0  9.386161239E+01 -1.637373479E+01  3.547261109E+02  3.879867462E+02  1.250000000E+02  0.00000E+00  9.000E+00
      25     1     1     2     0     0 -8.129928896E+01  3.336991780E+01  5.615678723E+01  1.627934598E+02  1.250000000E+02  0.00000E+00  9.000E+00
      21     1     1     2   502   512 -1.256232343E+01 -1.699618301E+01  1.582332703E+01  2.640189169E+01  4.460403188E-07  0.00000E+00  9.000E+00
#rwgt            1           1   1.9686813733377544E-002           5      307126           0
</event>
<event>
      5   9999  3.79277E-02  1.04553E+01 -1.00000E+00  1.93548E-01
      21    -1     0     0   511   501  0.000000000E+00  0.000000000E+00  1.209709209E+03  1.209709209E+03  0.000000000E+00  0.00000E+00  9.000E+00
      21    -1     0     0   501   502  0.000000000E+00  0.000000000E+00 -7.054387625E+01  7.054387625E+01  0.000000000E+00  0.00000E+00  9.000E+00
      25     1     1     2     0     0  1.178994599E+02  5.116430856E+01  2.329061781E+02  2.939189631E+02  1.250000000E+02  0.00000E+00  9.000E+00
      25     1     1     2     0     0 -1.112454331E+02 -4.309977535E+01  1.466047969E+02  2.266078187E+02  1.250000000E+02  0.00000E+00  9.000E+00
      21     1     1     2   511   502 -6.654026735E+00 -8.064533216E+00  7.596543581E+02  7.597263037E+02  0.000000000E+00  0.00000E+00  9.000E+00
#rwgt            1           1   4.9780986613452351E-002           5      307200           0
</event>
<event>
      5   9999  3.79277E-02  3.62542E+01 -1.00000E+00  1.47539E-01
      21    -1     0     0   512   501  0.000000000E+00  0.000000000E+00  5.915728318E+02  5.915728318E+02  0.000000000E+00  0.00000E+00  9.000E+00
      21    -1     0     0   501   502  0.000000000E+00  0.000000000E+00 -5.218962352E+02  5.218962352E+02  0.000000000E+00  0.00000E+00  9.000E+00
      25     1     1     2     0     0 -5.727840693E+01 -8.679332041E+01 -2.919846115E+01  1.652012303E+02  1.250000000E+02  0.00000E+00  9.000E+00
      25     1     1     2     0     0  3.378801187E+01  1.144079929E+02 -4.064452418E+02  4.416486761E+02  1.250000000E+02  0.00000E+00  9.000E+00
      21     1     1     2   512   502  2.349039506E+01 -2.761467251E+01  5.053202994E+02  5.066191605E+02  5.394796609E-06  0.00000E+00  9.000E+00
#rwgt            1           1   3.8023728833597843E-002           5      307552           0
</event>
<event>
      5   9999  3.79277E-02  9.58298E+01 -1.00000E+00  1.24666E-01
      -3    -1     0     0     0   501  0.000000000E+00  0.000000000E+00  6.451495579E+02  6.451495579E+02  0.000000000E+00  0.00000E+00  9.000E+00
      21    -1     0     0   501   502  0.000000000E+00  0.000000000E+00 -3.024149448E+02  3.024149448E+02  0.000000000E+00  0.00000E+00  9.000E+00
      25     1     1     2     0     0  4.096969387E+00 -1.280932927E+02 -1.720295766E+02  2.482817996E+02  1.250000000E+02  0.00000E+00  9.000E+00
      25     1     1     2     0     0  5.379235097E+01  5.172463266E+01 -2.789232621E+01  1.482296749E+02  1.250000000E+02  0.00000E+00  9.000E+00
      -3     1     1     2     0   502 -5.788932036E+01  7.636866002E+01  5.426565160E+02  5.510530283E+02  7.629394531E-06  0.00000E+00  9.000E+00
#rwgt            1           1   4.6169384986230487E-002           5      307713           0
</event>
<event>
      5   9999 -3.79277E-02  3.17911E+01 -1.00000E+00  1.51311E-01
      21    -1     0     0   502   511  0.000000000E+00  0.000000000E+00  1.467023487E+02  1.467023487E+02  0.000000000E+00  0.00000E+00  9.000E+00
      21    -1     0     0   501   502  0.000000000E+00  0.000000000E+00 -1.155490514E+03  1.155490514E+03  0.000000000E+00  0.00000E+00  9.000E+00
      25     1     1     2     0     0 -5.329485254E+01 -1.727537796E+02 -6.262393125E+02  6.636903541E+02  1.250000000E+02  0.00000E+00  9.000E+00
      25     1     1     2     0     0  2.179341157E+01  1.684722887E+02 -4.862591180E+02  5.300290508E+02  1.250000000E+02  0.00000E+00  9.000E+00
      21     1     1     2   501   511  3.150144096E+01  4.281490855E+00  1.037102652E+02  1.084734578E+02  2.697398305E-06  0.00000E+00  9.000E+00
#rwgt            1           1 -0.16473271686247901                5      307742           0
</event>
<event>
      5   9999 -3.79277E-02  4.49191E+01 -1.00000E+00  1.41784E-01
      21    -1     0     0   502   512  0.000000000E+00  0.000000000E+00  1.277974989E+02  1.277974989E+02  0.000000000E+00  0.00000E+00  9.000E+00
      21    -1     0     0   501   502  0.000000000E+00  0.000000000E+00 -1.178404311E+03  1.178404311E+03  0.000000000E+00  0.00000E+00  9.000E+00
      25     1     1     2     0     0 -6.096092715E+01 -7.448574494E+01 -8.649471389E+02  8.792172166E+02  1.250000000E+02  0.00000E+00  9.000E+00
      25     1     1     2     0     0  6.062163545E+01  1.194035296E+02 -2.730032705E+02  3.287673512E+02  1.250000000E+02  0.00000E+00  9.000E+00
      21     1     1     2   501   512  3.392916916E-01 -4.491778462E+01  8.734359768E+01  9.821724161E+01  3.693564745E-06  0.00000E+00  9.000E+00
#rwgt            1           1  -3.1475047974383670E-002           5      307860           0
</event>
<event>
      5   9999  3.79277E-02  8.32856E+01 -1.00000E+00  1.27509E-01
      21    -1     0     0   502   511  0.000000000E+00  0.000000000E+00  2.783168986E+02  2.783168986E+02  0.000000000E+00  0.00000E+00  9.000E+00
      21    -1     0     0   501   502  0.000000000E+00  0.000000000E+00 -4.917716754E+02  4.917716754E+02  0.000000000E+00  0.00000E+00  9.000E+00
      25     1     1     2     0     0 -1.353856024E+01  1.075744955E+02 -3.907702808E+02  4.243606686E+02  1.250000000E+02  0.00000E+00  9.000E+00
      25     1     1     2     0     0 -1.423845670E+01 -2.905742211E+01 -2.083060324E+01  1.307898370E+02  1.250000000E+02  0.00000E+00  9.000E+00
      21     1     1     2   501   511  2.777701694E+01 -7.851707336E+01  1.981461072E+02  2.149380685E+02  3.814697266E-06  0.00000E+00  9.000E+00
#rwgt            1           1   3.3694803937104924E-002           5      307982           0
</event>
<event>
      5   9999  3.79277E-02  7.94856E+01 -1.00000E+00  1.28485E-01
      21    -1     0     0   502   512  0.000000000E+00  0.000000000E+00  5.598774006E+02  5.598774006E+02  0.000000000E+00  0.00000E+00  9.000E+00
      21    -1     0     0   501   502  0.000000000E+00  0.000000000E+00 -2.646287623E+02  2.646287623E+02  0.000000000E+00  0.00000E+00  9.000E+00
      25     1     1     2     0     0 -1.118358972E+02  9.067822313E+01 -1.627454681E+02  2.506808637E+02  1.250000000E+02  0.00000E+00  9.000E+00
      25     1     1     2     0     0  1.030781051E+02 -1.696798622E+02  2.152275106E+02  3.183775003E+02  1.250000000E+02  0.00000E+00  9.000E+00
      21     1     1     2   501   512  8.757792016E+00  7.900163905E+01  2.427665958E+02  2.554477989E+02  2.697398305E-06  0.00000E+00  9.000E+00
#rwgt            2          11   1.3015913215519777E-003           5      308196           0
</event>
<event>
      5   9999  3.79277E-02  8.75374E+00 -1.00000E+00  2.02686E-01
      21    -1     0     0   502   511  0.000000000E+00  0.000000000E+00  6.002029691E+02  6.002029691E+02  0.000000000E+00  0.00000E+00  9.000E+00
      21    -1     0     0   501   502  0.000000000E+00  0.000000000E+00 -2.311057787E+02  2.311057787E+02  0.000000000E+00  0.00000E+00  9.000E+00
      25     1     1     2     0     0 -1.323800117E+02  3.042408662E+02  2.221595287E+02  4.184098808E+02  1.250000000E+02  0.00000E+00  9.000E+00
      25     1     1     2     0     0  1.238164578E+02 -3.024260460E+02  9.822753173E+01  3.634084156E+02  1.250000000E+02  0.00000E+00  9.000E+00
      21     1     1     2   501   511  8.563553888E+00 -1.814820223E+00  4.871012995E+01  4.949045148E+01  6.743495762E-07  0.00000E+00  9.000E+00
#rwgt            1           1  0.25964323691043417                5      308306           0
</event>
<event>
      5   9999  3.79277E-02  1.53227E+01 -1.00000E+00  1.76517E-01
      21    -1     0     0   512   501  0.000000000E+00  0.000000000E+00  5.067099472E+01  5.067099472E+01  0.000000000E+00  0.00000E+00  9.000E+00
      21    -1     0     0   501   502  0.000000000E+00  0.000000000E+00 -5.385736560E+02  5.385736560E+02  0.000000000E+00  0.00000E+00  9.000E+00
      25     1     1     2     0     0  2.735916694E+01 -7.538300548E+01 -1.363925837E+02  2.016409145E+02  1.250000000E+02  0.00000E+00  9.000E+00
      25     1     1     2     0     0 -1.204703572E+01  7.595071707E+01 -3.303083310E+02  3.614446514E+02  1.250000000E+02  0.00000E+00  9.000E+00
      21     1     1     2   512   502 -1.531213121E+01 -5.677115893E-01 -2.120174661E+01  2.615908481E+01  2.384185791E-07  0.00000E+00  9.000E+00
#rwgt            1           1   4.1462418097623452E-002           5      308678           0
</event>
<event>
      5   9999  3.79277E-02  9.66391E+01 -1.00000E+00  1.24499E-01
      21    -1     0     0   502   501  0.000000000E+00  0.000000000E+00  1.551360369E+03  1.551360369E+03  0.000000000E+00  0.00000E+00  9.000E+00
      21    -1     0     0   511   502  0.000000000E+00  0.000000000E+00 -1.367299508E+02  1.367299508E+02  0.000000000E+00  0.00000E+00  9.000E+00
      25     1     1     2     0     0 -8.257818321E+01  1.057639933E+02  8.079660855E+02  8.285163692E+02  1.250000000E+02  0.00000E+00  9.000E+00
      25     1     1     2     0     0  9.348933556E+00 -1.688241907E+02  6.965491671E+02  7.275951842E+02  1.250000000E+02  0.00000E+00  9.000E+00
      21     1     1     2   511   501  7.322924965E+01  6.306019744E+01 -8.988483395E+01  1.319787668E+02  3.932099939E-06  0.00000E+00  9.000E+00
#rwgt            1           1   4.4375366546196185E-002           5      308811           0
</event>
<event>
      5   9999  3.79277E-02  2.68177E+01 -1.00000E+00  1.56501E-01
      21    -1     0     0   502   501  0.000000000E+00  0.000000000E+00  1.033732561E+03  1.033732561E+03  0.000000000E+00  0.00000E+00  9.000E+00
       4    -1     0     0   501     0  0.000000000E+00  0.000000000E+00 -1.422242330E+02  1.422242330E+02  0.000000000E+00  0.00000E+00  9.000E+00
      25     1     1     2     0     0 -8.146454916E+01 -5.569333509E+01  6.000017639E+02  6.207780095E+02  1.250000000E+02  0.00000E+00  9.000E+00
      25     1     1     2     0     0  6.224006446E+01  7.439112234E+01  4.069692203E+02  4.366426582E+02  1.250000000E+02  0.00000E+00  9.000E+00
       4     1     1     2   502     0  1.922448469E+01 -1.869778725E+01 -1.154626567E+02  1.185361259E+02  1.348699152E-06  0.00000E+00  9.000E+00
#rwgt            1           1   3.4600181860774328E-002           5      308939           0
</event>
<event>
      5   9999  3.79277E-02  3.18220E+01 -1.00000E+00  1.51282E-01
      21    -1     0     0   502   501  0.000000000E+00  0.000000000E+00  2.178006582E+03  2.178006582E+03  0.000000000E+00  0.00000E+00  9.000E+00
      21    -1     0     0   501   511  0.000000000E+00  0.000000000E+00 -9.068512524E+01  9.068512524E+01  0.000000000E+00  0.00000E+00  9.000E+00
      25     1     1     2     0     0 -1.293132593E+02 -1.925138757E+02  1.092740528E+03  1.124050877E+03  1.250000000E+02  0.00000E+00  9.000E+00
      25     1     1     2     0     0  1.042929236E+02  2.121766447E+02  1.048479631E+03  1.082049204E+03  1.250000000E+02  0.00000E+00  9.000E+00
      21     1     1     2   502   511  2.502033569E+01 -1.966276901E+01 -5.389870225E+01  6.259162714E+01  3.162979880E-06  0.00000E+00  9.000E+00
#rwgt            1           1  0.10257602842349292                5      309074           0
</event>
<event>
      5   9999  3.79277E-02  3.20294E+01 -1.00000E+00  1.51091E-01
      21    -1     0     0   502   501  0.000000000E+00  0.000000000E+00  1.265778116E+03  1.265778116E+03  0.000000000E+00  0.00000E+00  9.000E+00
      21    -1     0     0   501   512  0.000000000E+00  0.000000000E+00 -4.541976256E+01  4.541976256E+01  0.000000000E+00  0.00000E+00  9.000E+00
      25     1     1     2     0     0  1.356456172E+02  2.485027478E+00  2.627020695E+02  3.210035609E+02  1.250000000E+02  0.00000E+00  9.000E+00
      25     1     1     2     0     0 -1.675097418E+02 -5.734221563E+00  9.025829163E+02  9.264843850E+02  1.250000000E+02  0.00000E+00  9.000E+00
      21     1     1     2   502   512  3.186412457E+01  3.249194084E+00  5.507336821E+01  6.370993315E+01  0.000000000E+00  0.00000E+00  9.000E+00
#rwgt            1           1   3.0011797387161261E-002           5      309208           0
</event>
<event>
      5   9999  3.79277E-02  3.61937E+01 -1.00000E+00  1.47586E-01
       3    -1     0     0   502     0  0.000000000E+00  0.000000000E+00  2.420308925E+02  2.420308925E+02  0.000000000E+00  0.00000E+00  9.000E+00
      21    -1     0     0   501   502  0.000000000E+00  0.000000000E+00 -1.235628916E+03  1.235628916E+03  0.000000000E+00  0.00000E+00  9.000E+00
      25     1     1     2     0     0  1.317025437E+02  9.355400727E+01 -8.630112730E+02  8.868547624E+02  1.250000000E+02  0.00000E+00  9.000E+00
      25     1     1     2     0     0 -1.023170495E+02 -1.146839161E+02 -3.317568623E+02  3.864049624E+02  1.250000000E+02  0.00000E+00  9.000E+00
       3     1     1     2   501     0 -2.938549418E+01  2.112990888E+01  2.011701119E+02  2.044000837E+02  7.136645101E-06  0.00000E+00  9.000E+00
#rwgt            1           1  0.24666466388116229                5      309391           0
</event>
<event>
      5   9999  3.79277E-02  9.96726E+01 -1.00000E+00  1.23892E-01
      21    -1     0     0   502   501  0.000000000E+00  0.000000000E+00  2.804353886E+02  2.804353886E+02  0.000000000E+00  0.00000E+00  9.000E+00
      21    -1     0     0   511   502  0.000000000E+00  0.000000000E+00 -5.769657832E+02  5.769657832E+02  0.000000000E+00  0.00000E+00  9.000E+00
      25     1     1     2     0     0  3.469617029E+02  5.110166600E+01 -2.801582954E+02  4.659479305E+02  1.250000000E+02  0.00000E+00  9.000E+00
      25     1     1     2     0     0 -2.488149400E+02 -3.372816731E+01  2.892256058E+01  2.819715911E+02  1.250000000E+02  0.00000E+00  9.000E+00
      21     1     1     2   511   501 -9.814676283E+01 -1.737349870E+01 -4.529465991E+01  1.094816502E+02  2.023048729E-06  0.00000E+00  9.000E+00
#rwgt            1           1   2.9000102783963071E-002           5      309493           0
</event>
<event>
      5   9999  3.79277E-02  1.96562E+01 -1.00000E+00  1.66993E-01
      21    -1     0     0   512   501  0.000000000E+00  0.000000000E+00  4.050609477E+02  4.050609477E+02  0.000000000E+00  0.00000E+00  9.000E+00
      21    -1     0     0   501   502  0.000000000E+00  0.000000000E+00 -2.611006384E+02  2.611006384E+02  0.000000000E+00  0.00000E+00  9.000E+00
      25     1     1     2     0     0  1.677929316E+02  6.213802875E+01 -7.935342214E+01  2.322446299E+02  1.250000000E+02  0.00000E+00  9.000E+00
      25     1     1     2     0     0 -1.816076426E+02 -4.815525253E+01  1.660564214E+01  2.262764052E+02  1.250000000E+02  0.00000E+00  9.000E+00
      21     1     1     2   512   502  1.381471105E+01 -1.398277622E+01  2.067080893E+02  2.076405511E+02  0.000000000E+00  0.00000E+00  9.000E+00
#rwgt            1           1   3.8586611595474947E-002           5      309706           0
</event>
<event>
      5   9999  3.79277E-02  9.42562E+01 -1.00000E+00  1.24995E-01
      21    -1     0     0   502   501  0.000000000E+00  0.000000000E+00  2.442541281E+02  2.442541281E+02  0.000000000E+00  0.00000E+00  9.000E+00
      -1    -1     0     0     0   502  0.000000000E+00  0.000000000E+00 -6.506475991E+02  6.506475991E+02  0.000000000E+00  0.00000E+00  9.000E+00
      25     1     1     2     0     0  5.854292309E+01 -6.986695424E+00  1.718515888E+02  2.205313047E+02  1.250000000E+02  0.00000E+00  9.000E+00
      25     1     1     2     0     0 -7.157720592E+00  8.600431521E+01 -8.883743657E+01  1.759689329E+02  1.250000000E+02  0.00000E+00  9.000E+00
      -1     1     1     2     0   501 -5.138520250E+01 -7.901761979E+01 -4.894076232E+02  4.984014897E+02  7.629394531E-06  0.00000E+00  9.000E+00
#rwgt            1           1   4.4751291864684475E-002           5      309879           0
</event>
<event>
      5   9999  3.79277E-02  1.12229E+02 -1.00000E+00  1.21616E-01
      21    -1     0     0   502   501  0.000000000E+00  0.000000000E+00  7.450426866E+02  7.450426866E+02  0.000000000E+00  0.00000E+00  9.000E+00
       1    -1     0     0   501     0  0.000000000E+00  0.000000000E+00 -5.785074843E+02  5.785074843E+02  0.000000000E+00  0.00000E+00  9.000E+00
      25     1     1     2     0     0  1.163308759E+02 -5.932696541E+01  6.447547081E+02  6.696164537E+02  1.250000000E+02  0.00000E+00  9.000E+00
      25     1     1     2     0     0 -2.920412613E+01 -1.141350233E+01  3.095450590E+01  1.325380340E+02  1.250000000E+02  0.00000E+00  9.000E+00
       1     1     1     2   502     0 -8.712674978E+01  7.074046774E+01 -5.091740116E+02  5.213956832E+02  0.000000000E+00  0.00000E+00  9.000E+00
#rwgt            1           1   3.1211335651382652E-002           5      309942           0
</event>
<event>
      5   9999  3.79277E-02  1.97192E+02 -1.00000E+00  1.11872E-01
      21    -1     0     0   511   501  0.000000000E+00  0.000000000E+00  1.317878503E+03  1.317878503E+03  0.000000000E+00  0.00000E+00  9.000E+00
      21    -1     0     0   501   502  0.000000000E+00  0.000000000E+00 -7.972671785E+02  7.972671785E+02  0.000000000E+00  0.00000E+00  9.000E+00
      25     1     1     2     0     0  2.067371259E+02  1.022655555E+02  1.096214599E+00  2.623445916E+02  1.250000000E+02  0.00000E+00  9.000E+00
      25     1     1     2     0     0 -1.025376515E+01 -8.556136936E+01 -6.496337482E+02  6.671393366E+02  1.250000000E+02  0.00000E+00  9.000E+00
      21     1     1     2   511   502 -1.964833608E+02 -1.670418611E+01  1.169148858E+03  1.185661753E+03  1.525878906E-05  0.00000E+00  9.000E+00
#rwgt            1           1   3.1313935561318368E-002           5      310036           0
</event>
<event>
      5   9999  3.79277E-02  1.01277E+02 -1.00000E+00  1.23581E-01
      21    -1     0     0   502   501  0.000000000E+00  0.000000000E+00  4.243753531E+01  4.243753531E+01  0.000000000E+00  0.00000E+00  9.000E+00
       1    -1     0     0   501     0  0.000000000E+00  0.000000000E+00 -1.915792504E+03  1.915792504E+03  0.000000000E+00  0.00000E+00  9.000E+00
      25     1     1     2     0     0  1.139268127E+02 -1.401092805E+02 -1.134968053E+03  1.156022236E+03  1.250000000E+02  0.00000E+00  9.000E+00
      25     1     1     2     0     0 -3.630764717E+01  7.505383181E+01 -1.788932418E+02  2.336217346E+02  1.250000000E+02  0.00000E+00  9.000E+00
       1     1     1     2   502     0 -7.761916551E+01  6.505544868E+01 -5.594936737E+02  5.685860684E+02  7.629394531E-06  0.00000E+00  9.000E+00
#rwgt            1           1   4.8644721333184489E-002           5      310240           0
</event>
<event>
      5   9999  3.79277E-02  1.43015E+02 -1.00000E+00  1.17220E-01
      -1    -1     0     0     0   501  0.000000000E+00  0.000000000E+00  1.507494772E+03  1.507494772E+03  0.000000000E+00  0.00000E+00  9.000E+00
      21    -1     0     0   501   502  0.000000000E+00  0.000000000E+00 -7.086502600E+01  7.086502600E+01  0.000000000E+00  0.00000E+00  9.000E+00
      25     1     1     2     0     0 -3.157218538E+01  1.756903886E+02  2.363447263E+02  3.214774411E+02  1.250000000E+02  0.00000E+00  9.000E+00
      25     1     1     2     0     0 -7.966195756E+01 -8.580001126E+01  3.011524759E+02  3.464469414E+02  1.250000000E+02  0.00000E+00  9.000E+00
      -1     1     1     2     0   502  1.112341429E+02 -8.989037731E+01  8.991325439E+02  9.104354156E+02  2.157918644E-05  0.00000E+00  9.000E+00
#rwgt            2           5   4.2824197487607771E-005           5      310671           0
</event>
<event>
      5   9999  3.79277E-02  1.40432E+02 -1.00000E+00  1.17539E-01
      21    -1     0     0   511   501  0.000000000E+00  0.000000000E+00  1.676924152E+02  1.676924152E+02  0.000000000E+00  0.00000E+00  9.000E+00
      21    -1     0     0   501   502  0.000000000E+00  0.000000000E+00 -5.880828186E+02  5.880828186E+02  0.000000000E+00  0.00000E+00  9.000E+00
      25     1     1     2     0     0  7.689846652E+01  1.566237723E+02 -1.358090598E+02  2.539950412E+02  1.250000000E+02  0.00000E+00  9.000E+00
      25     1     1     2     0     0 -1.332346458E+02 -2.798661948E+01 -3.082050584E+02  3.593745675E+02  1.250000000E+02  0.00000E+00  9.000E+00
      21     1     1     2   511   502  5.633617930E+01 -1.286371528E+02  2.362371481E+01  1.424056252E+02  8.920806376E-07  0.00000E+00  9.000E+00
#rwgt            1           1   3.8375255663256572E-002           5      310705           0
</event>
<event>
      5   9999  3.79277E-02  2.83534E+01 -1.00000E+00  1.54762E-01
      21    -1     0     0   502   501  0.000000000E+00  0.000000000E+00  1.352261239E+02  1.352261239E+02  0.000000000E+00  0.00000E+00  9.000E+00
      21    -1     0     0   501   512  0.000000000E+00  0.000000000E+00 -6.622999576E+02  6.622999576E+02  0.000000000E+00  0.00000E+00  9.000E+00
      25     1     1     2     0     0  1.398132633E+02 -1.134755302E+02 -1.713968770E+02  2.782558786E+02  1.250000000E+02  0.00000E+00  9.000E+00
      25     1     1     2     0     0 -1.218721479E+02  1.354306905E+02 -6.940162782E+01  2.315942104E+02  1.250000000E+02  0.00000E+00  9.000E+00
      21     1     1     2   502   512 -1.794111540E+01 -2.195516025E+01 -2.862753289E+02  2.876759925E+02  0.000000000E+00  0.00000E+00  9.000E+00
#rwgt            1           1   1.9028089524043872E-002           5      310835           0
</event>
<event>
      5   9999  3.79277E-02  1.09692E+02 -1.00000E+00  1.22048E-01
      21    -1     0     0   502   501  0.000000000E+00  0.000000000E+00  4.608715799E+02  4.608715799E+02  0.000000000E+00  0.00000E+00  9.000E+00
      21    -1     0     0   511   502  0.000000000E+00  0.000000000E+00 -3.785248618E+02  3.785248618E+02  0.000000000E+00  0.00000E+00  9.000E+00
      25     1     1     2     0     0  1.986091427E+02 -2.690310974E+02  2.413991417E+02  4.309546015E+02  1.250000000E+02  0.00000E+00  9.000E+00
      25     1     1     2     0     0 -1.595404973E+02  1.665325623E+02 -8.365040888E+01  2.753337166E+02  1.250000000E+02  0.00000E+00  9.000E+00
      21     1     1     2   511   501 -3.906864535E+01  1.024985350E+02 -7.540201482E+01  1.331081236E+02  0.000000000E+00  0.00000E+00  9.000E+00
#rwgt            1           1   2.3067296151762742E-002           5      311037           0
</event>
<event>
      5   9999 -3.79277E-02  4.52944E+01 -1.00000E+00  1.41570E-01
      21    -1     0     0   502   501  0.000000000E+00  0.000000000E+00  2.355699636E+02  2.355699636E+02  0.000000000E+00  0.00000E+00  9.000E+00
      21    -1     0     0   501   512  0.000000000E+00  0.000000000E+00 -6.252770538E+02  6.252770538E+02  0.000000000E+00  0.00000E+00  9.000E+00
      25     1     1     2     0     0 -1.610522071E+02  6.776851929E+01  5.537642083E+01  2.218601668E+02  1.250000000E+02  0.00000E+00  9.000E+00
      25     1     1     2     0     0  2.054293014E+02 -5.869914512E+01 -6.460714998E+01  2.558239069E+02  1.250000000E+02  0.00000E+00  9.000E+00
      21     1     1     2   502   512 -4.437709431E+01 -9.069374168E+00 -3.804763611E+02  3.831629437E+02  5.394796609E-06  0.00000E+00  9.000E+00
#rwgt            1           1 -0.33562494199127424                5      311168           0
</event>
<event>
      5   9999  3.79277E-02  1.44978E+01 -1.00000E+00  1.78788E-01
      21    -1     0     0   502   511  0.000000000E+00  0.000000000E+00  5.700796481E+02  5.700796481E+02  0.000000000E+00  0.00000E+00  9.000E+00
      21    -1     0     0   501   502  0.000000000E+00  0.000000000E+00 -1.079546754E+02  1.079546754E+02  0.000000000E+00  0.00000E+00  9.000E+00
      25     1     1     2     0     0  1.069698245E+02  4.346553847E+01  1.145224611E+02  2.051150664E+02  1.250000000E+02  0.00000E+00  9.000E+00
      25     1     1     2     0     0 -1.181021193E+02 -5.275303356E+01  6.701235695E+01  1.919548101E+02  1.250000000E+02  0.00000E+00  9.000E+00
      21     1     1     2   501   511  1.113229481E+01  9.287495093E+00  2.805901547E+02  2.809644470E+02  3.814697266E-06  0.00000E+00  9.000E+00
#rwgt            1           1   2.8870519265842255E-002           5      311378           0
</event>
<event>
      5   9999  3.79277E-02  6.87908E+01 -1.00000E+00  1.31605E-01
      21    -1     0     0   502   501  0.000000000E+00  0.000000000E+00  6.617330699E+01  6.617330699E+01  0.000000000E+00  0.00000E+00  9.000E+00
       2    -1     0     0   501     0  0.000000000E+00  0.000000000E+00 -3.679690178E+03  3.679690178E+03  0.000000000E+00  0.00000E+00  9.000E+00
      25     1     1     2     0     0 -4.878845777E+01 -1.258858186E+02 -1.258589847E+02  2.229193508E+02  1.250000000E+02  0.00000E+00  9.000E+00
      25     1     1     2     0     0 -1.937658055E+01  1.166280199E+02 -4.115505404E+02  4.460677014E+02  1.250000000E+02  0.00000E+00  9.000E+00
       2     1     1     2   502     0  6.816503832E+01  9.257798683E+00 -3.076107346E+03  3.076876433E+03  4.315837288E-05  0.00000E+00  9.000E+00
#rwgt            1           1   3.7545429072256616E-002           5      311558           0
</event>
<event>
      5   9999  3.79277E-02  3.18875E+02 -1.00000E+00  1.04738E-01
      21    -1     0     0   502   511  0.000000000E+00  0.000000000E+00  2.045923942E+03  2.045923942E+03  0.000000000E+00  0.00000E+00  9.000E+00
      21    -1     0     0   501   502  0.000000000E+00  0.000000000E+00 -1.423594144E+02  1.423594144E+02  0.000000000E+00  0.00000E+00  9.000E+00
      25     1     1     2     0     0 -2.871402720E+02 -3.116327112E+02  6.901607322E+02  8.194579420E+02  1.250000000E+02  0.00000E+00  9.000E+00
      25     1     1     2     0     0 -1.438218865E+01  2.078751733E+02  2.283613884E+02  3.334559322E+02  1.250000000E+02  0.00000E+00  9.000E+00
      21     1     1     2   501   511  3.015224606E+02  1.037575379E+02  9.850424068E+02  1.035369482E+03  1.078959322E-05  0.00000E+00  9.000E+00
#rwgt            2          11   6.2929978249986617E-004           5      311675           0
</event>
<event>
      5   9999  3.79277E-02  8.70008E+01 -1.00000E+00  1.26611E-01
       4    -1     0     0   502     0  0.000000000E+00  0.000000000E+00  4.890192412E+01  4.890192412E+01  0.000000000E+00  0.00000E+00  9.000E+00
      21    -1     0     0   501   502  0.000000000E+00  0.000000000E+00 -1.687937282E+03  1.687937282E+03  0.000000000E+00  0.00000E+00  9.000E+00
      25     1     1     2     0     0  8.493986892E+01  9.900873631E+01 -2.766282156E+02  3.304023016E+02  1.250000000E+02  0.00000E+00  9.000E+00
      25     1     1     2     0     0 -1.577689224E+02 -1.466014037E+02 -1.154697515E+03  1.181242717E+03  1.250000000E+02  0.00000E+00  9.000E+00
       4     1     1     2   501     0  7.282905345E+01  4.759266739E+01 -2.077096271E+02  2.251941878E+02  3.814697266E-06  0.00000E+00  9.000E+00
#rwgt            1           1   3.6753946464285155E-002           5      311710           0
</event>
<event>
      5   9999  3.79277E-02  2.13919E+01 -1.00000E+00  1.63994E-01
      21    -1     0     0   502   501  0.000000000E+00  0.000000000E+00  1.321912760E+02  1.321912760E+02  0.000000000E+00  0.00000E+00  9.000E+00
      21    -1     0     0   511   502  0.000000000E+00  0.000000000E+00 -5.142298730E+02  5.142298730E+02  0.000000000E+00  0.00000E+00  9.000E+00
      25     1     1     2     0     0  1.712401600E+02 -2.225045353E+01 -3.745939344E+01  2.164404797E+02  1.250000000E+02  0.00000E+00  9.000E+00
      25     1     1     2     0     0 -1.902911164E+02  3.198049730E+01 -2.819872495E+02  3.638341244E+02  1.250000000E+02  0.00000E+00  9.000E+00
      21     1     1     2   511   501  1.905095636E+01 -9.730043767E+00 -6.259195402E+01  6.614654487E+01  1.168007728E-06  0.00000E+00  9.000E+00
#rwgt            1           1   4.1976078778144257E-002           5      311914           0
</event>
<event>
      5   9999 -3.79277E-02  6.73079E+01 -1.00000E+00  1.32089E-01
      21    -1     0     0   502   501  0.000000000E+00  0.000000000E+00  6.194636595E+02  6.194636595E+02  0.000000000E+00  0.00000E+00  9.000E+00
      21    -1     0     0   512   502  0.000000000E+00  0.000000000E+00 -1.105494467E+02  1.105494467E+02  0.000000000E+00  0.00000E+00  9.000E+00
      25     1     1     2     0     0 -2.467021792E+01 -1.091157862E+02  3.531294580E+02  3.909479358E+02  1.250000000E+02  0.00000E+00  9.000E+00
      25     1     1     2     0     0  8.856750746E+01  8.796188329E+01  1.934199445E+02  2.619499403E+02  1.250000000E+02  0.00000E+00  9.000E+00
      21     1     1     2   512   501 -6.389728954E+01  2.115390296E+01 -3.763518962E+01  7.711523013E+01  2.384185791E-06  0.00000E+00  9.000E+00
#rwgt            1           1 -0.19496166657528163                5      312092           0
</event>
<event>
      5   9999  3.79277E-02  8.40190E+01 -1.00000E+00  1.27328E-01
      21    -1     0     0   511   501  0.000000000E+00  0.000000000E+00  4.844910683E+02  4.844910683E+02  0.000000000E+00  0.00000E+00  9.000E+00
      21    -1     0     0   501   502  0.000000000E+00  0.000000000E+00 -4.773908549E+02  4.773908549E+02  0.000000000E+00  0.00000E+00  9.000E+00
      25     1     1     2     0     0 -4.056003230E+02 -7.925872423E+01  7.738068625E+01  4.386414686E+02  1.250000000E+02  0.00000E+00  9.000E+00
      25     1     1     2     0     0  3.231745604E+02  6.297438083E+01 -1.714778434E+02  3.917106329E+02  1.250000000E+02  0.00000E+00  9.000E+00
      21     1     1     2   511   502  8.242576262E+01  1.628434339E+01  1.011973706E+02  1.315298217E+02  3.303624740E-06  0.00000E+00  9.000E+00
#rwgt            1           1   2.4186898437004532E-002           5      312240           0
</event>
<event>
      5   9999  3.79277E-02  1.41801E+02 -1.00000E+00  1.17369E-01
      21    -1     0     0   502   512  0.000000000E+00  0.000000000E+00  1.048126565E+03  1.048126565E+03  0.000000000E+00  0.00000E+00  9.000E+00
      21    -1     0     0   501   502  0.000000000E+00  0.000000000E+00 -7.377665025E+01  7.377665025E+01  0.000000000E+00  0.00000E+00  9.000E+00
      25     1     1     2     0     0  5.653518184E+01  1.498890174E+02  2.255593047E+02  3.035867986E+02  1.250000000E+02  0.00000E+00  9.000E+00
      25     1     1     2     0     0  7.257547352E+01 -9.125504316E+01  2.753341643E+02  3.240811384E+02  1.250000000E+02  0.00000E+00  9.000E+00
      21     1     1     2   501   512 -1.291106554E+02 -5.863397422E+01  4.734564457E+02  4.942352783E+02  5.394796609E-06  0.00000E+00  9.000E+00
#rwgt            1           1   3.7021796120789201E-002           5      312535           0
</event>
<event>
      5   9999  3.79277E-02  2.14871E+01 -1.00000E+00  1.63839E-01
      21    -1     0     0   502   501  0.000000000E+00  0.000000000E+00  2.846717298E+03  2.846717298E+03  0.000000000E+00  0.00000E+00  9.000E+00
      21    -1     0     0   501   511  0.000000000E+00  0.000000000E+00 -1.498489972E+01  1.498489972E+01  0.000000000E+00  0.00000E+00  9.000E+00
      25     1     1     2     0     0  2.141152236E+01 -4.137411086E+01  4.583429088E+02  4.773609666E+02  1.250000000E+02  0.00000E+00  9.000E+00
      25     1     1     2     0     0 -2.787790385E+01  6.186509973E+01  2.341924575E+03  2.346239584E+03  1.250000000E+02  0.00000E+00  9.000E+00
      21     1     1     2   502   511  6.466381485E+00 -2.049098887E+01  3.146491450E+01  3.810164772E+01  2.078484985E-06  0.00000E+00  9.000E+00
#rwgt            2          11   8.0894969563627753E-004           5      312652           0
</event>
<event>
      5   9999 -3.79277E-02  1.46216E+02 -1.00000E+00  1.16835E-01
      21    -1     0     0   502   501  0.000000000E+00  0.000000000E+00  2.343710462E+02  2.343710462E+02  0.000000000E+00  0.00000E+00  9.000E+00
       2    -1     0     0   501     0  0.000000000E+00  0.000000000E+00 -6.421712868E+02  6.421712868E+02  0.000000000E+00  0.00000E+00  9.000E+00
      25     1     1     2     0     0 -1.837719634E+01  1.821939869E+02 -3.406734011E+01  2.243166375E+02  1.250000000E+02  0.00000E+00  9.000E+00
      25     1     1     2     0     0  1.592833983E+02 -1.431492380E+02  3.135213010E+00  2.479873684E+02  1.250000000E+02  0.00000E+00  9.000E+00
       2     1     1     2   502     0 -1.409062020E+02 -3.904474895E+01 -3.768681134E+02  4.042383271E+02  0.000000000E+00  0.00000E+00  9.000E+00
#rwgt            1           1  -1.1074686120032954E-002           5      312927           0
</event>
<event>
      5   9999  3.79277E-02  7.48979E+01 -1.00000E+00  1.29750E-01
      21    -1     0     0   502   501  0.000000000E+00  0.000000000E+00  1.870655141E+03  1.870655141E+03  0.000000000E+00  0.00000E+00  9.000E+00
      21    -1     0     0   501   511  0.000000000E+00  0.000000000E+00 -6.979540800E+01  6.979540800E+01  0.000000000E+00  0.00000E+00  9.000E+00
      25     1     1     2     0     0  4.699281798E+01 -1.141933542E+02  1.646335064E+03  1.655684931E+03  1.250000000E+02  0.00000E+00  9.000E+00
      25     1     1     2     0     0  2.524300891E+01  9.440252269E+01  7.491089978E+01  1.754585099E+02  1.250000000E+02  0.00000E+00  9.000E+00
      21     1     1     2   502   511 -7.223582689E+01  1.979083147E+01  7.961376948E+01  1.093071086E+02  1.907348633E-06  0.00000E+00  9.000E+00
#rwgt            2          11   3.7350273192251135E-003           5      312958           0
</event>
<event>
      5   9999  3.79277E-02  3.77288E+01 -1.00000E+00  1.46432E-01
      21    -1     0     0   502   512  0.000000000E+00  0.000000000E+00  5.716696139E+01  5.716696139E+01  0.000000000E+00  0.00000E+00  9.000E+00
      21    -1     0     0   501   502  0.000000000E+00  0.000000000E+00 -1.785512435E+03  1.785512435E+03  0.000000000E+00  0.00000E+00  9.000E+00
      25     1     1     2     0     0 -4.824390273E+01 -2.369751425E+02 -7.697370905E+02  8.164587441E+02  1.250000000E+02  0.00000E+00  9.000E+00
      25     1     1     2     0     0  4.328126804E+01  2.743761654E+02 -9.307414080E+02  9.793161476E+02  1.250000000E+02  0.00000E+00  9.000E+00
      21     1     1     2   501   512  4.962634691E+00 -3.740102295E+01 -2.786697510E+01  4.690450471E+01  6.743495762E-07  0.00000E+00  9.000E+00
#rwgt            1           1   3.7057160441552384E-002           5      313038           0
</event>
<event>
      5   9999  3.79277E-02  7.83945E+01 -1.00000E+00  1.28777E-01
       1    -1     0     0   502     0  0.000000000E+00  0.000000000E+00  3.764969498E+02  3.764969498E+02  0.000000000E+00  0.00000E+00  9.000E+00
      21    -1     0     0   501   502  0.000000000E+00  0.000000000E+00 -2.885940458E+02  2.885940458E+02  0.000000000E+00  0.00000E+00  9.000E+00
      25     1     1     2     0     0 -4.249060322E+01  5.646440705E+01 -2.050715576E+02  2.503458096E+02  1.250000000E+02  0.00000E+00  9.000E+00
      25     1     1     2     0     0  3.812366978E+01 -1.347372207E+02  1.146461083E+02  2.199460457E+02  1.250000000E+02  0.00000E+00  9.000E+00
       1     1     1     2   501     0  4.366933441E+00  7.827281369E+01  1.783283533E+02  1.947991403E+02  0.000000000E+00  0.00000E+00  9.000E+00
#rwgt            1           1   3.6465774701965409E-002           5      313328           0
</event>
<event>
      5   9999  3.79277E-02  7.76091E+00 -1.00000E+00  2.09408E-01
      21    -1     0     0   502   511  0.000000000E+00  0.000000000E+00  5.645544553E+02  5.645544553E+02  0.000000000E+00  0.00000E+00  9.000E+00
      21    -1     0     0   501   502  0.000000000E+00  0.000000000E+00 -8.110808522E+01  8.110808522E+01  0.000000000E+00  0.00000E+00  9.000E+00
      25     1     1     2     0     0 -7.095711422E+01  1.582433499E+01  2.360213644E+01  1.465175160E+02  1.250000000E+02  0.00000E+00  9.000E+00
      25     1     1     2     0     0  7.806943916E+01 -1.271843993E+01  2.598816086E+02  2.990318487E+02  1.250000000E+02  0.00000E+00  9.000E+00
      21     1     1     2   501   511 -7.112324948E+00 -3.105895066E+00  1.999626250E+02  2.001131759E+02  2.697398305E-06  0.00000E+00  9.000E+00
#rwgt            1           1   5.1041400822076075E-002           5      313489           0
</event>
<event>
      5   9999  3.79277E-02  4.24346E+01 -1.00000E+00  1.43267E-01
       1    -1     0     0   502     0  0.000000000E+00  0.000000000E+00  7.668966784E+02  7.668966784E+02  0.000000000E+00  0.00000E+00  9.000E+00
      21    -1     0     0   501   502  0.000000000E+00  0.000000000E+00 -7.564845466E+01  7.564845466E+01  0.000000000E+00  0.00000E+00  9.000E+00
      25     1     1     2     0     0  1.631850409E+02 -2.707754281E+01  2.459681508E+02  3.216953250E+02  1.250000000E+02  0.00000E+00  9.000E+00
      25     1     1     2     0     0 -1.383691313E+02 -7.344292607E+00  2.065035995E+02  2.783319812E+02  1.250000000E+02  0.00000E+00  9.000E+00
       1     1     1     2   501     0 -2.481590958E+01  3.442183542E+01  2.387764734E+02  2.425178269E+02  3.814697266E-06  0.00000E+00  9.000E+00
#rwgt            1           1   3.9750941855420656E-002           5      313725           0
</event>
<event>
      5   9999  3.79277E-02  9.25924E+01 -1.00000E+00  1.25350E-01
      21    -1     0     0   502   511  0.000000000E+00  0.000000000E+00  1.250449012E+02  1.250449012E+02  0.000000000E+00  0.00000E+00  9.000E+00
      21    -1     0     0   501   502  0.000000000E+00  0.000000000E+00 -5.872533526E+02  5.872533526E+02  0.000000000E+00  0.00000E+00  9.000E+00
      25     1     1     2     0     0 -8.005954918E+01  1.786019200E+02 -2.222437290E+02  3.214427668E+02  1.250000000E+02  0.00000E+00  9.000E+00
      25     1     1     2     0     0 -1.133916878E+01 -1.637819428E+02 -2.077716185E+02  2.928261378E+02  1.250000000E+02  0.00000E+00  9.000E+00
      21     1     1     2   501   511  9.139871796E+01 -1.481997722E+01 -3.219310384E+01  9.802934920E+01  1.966049969E-06  0.00000E+00  9.000E+00
#rwgt            1           1   1.0845601092666734E-002           5      313818           0
</event>
<event>
      5   9999  3.79277E-02  2.87990E+01 -1.00000E+00  1.54283E-01
      21    -1     0     0   502   501  0.000000000E+00  0.000000000E+00  1.912222337E+02  1.912222337E+02  0.000000000E+00  0.00000E+00  9.000E+00
      21    -1     0     0   501   512  0.000000000E+00  0.000000000E+00 -2.495253794E+02  2.495253794E+02  0.000000000E+00  0.00000E+00  9.000E+00
      25     1     1     2     0     0 -2.838059053E+01 -4.113241663E+01 -1.624100701E+02  2.109487247E+02  1.250000000E+02  0.00000E+00  9.000E+00
      25     1     1     2     0     0  3.243750883E+01  1.262060812E+01  1.352181504E+02  1.874044288E+02  1.250000000E+02  0.00000E+00  9.000E+00
      21     1     1     2   502   512 -4.056918304E+00  2.851180851E+01 -3.111122612E+01  4.239445956E+01  3.371747881E-07  0.00000E+00  9.000E+00
#rwgt            1           1   4.6324489386620968E-002           5      313975           0
</event>
<event>
      5   9999  3.79277E-02  4.54142E+01 -1.00000E+00  1.41502E-01
      21    -1     0     0   502   511  0.000000000E+00  0.000000000E+00  1.990853447E+03  1.990853447E+03  0.000000000E+00  0.00000E+00  9.000E+00
      21    -1     0     0   501   502  0.000000000E+00  0.000000000E+00 -2.967368965E+01  2.967368965E+01  0.000000000E+00  0.00000E+00  9.000E+00
      25     1     1     2     0     0 -1.770051866E+02  5.499541352E+01  8.875525961E+02  9.152758833E+02  1.250000000E+02  0.00000E+00  9.000E+00
      25     1     1     2     0     0  1.403357376E+02 -8.178727265E+01  7.161881457E+02  7.449387473E+02  1.250000000E+02  0.00000E+00  9.000E+00
      21     1     1     2   501   511  3.666944904E+01  2.679185913E+01  3.574390151E+02  3.603125057E+02  7.629394531E-06  0.00000E+00  9.000E+00
#rwgt            1           1   2.8257256288730492E-002           5      314115           0
</event>
<event>
      5   9999  3.79277E-02  2.62826E+01 -1.00000E+00  1.57140E-01
      -1    -1     0     0     0   501  0.000000000E+00  0.000000000E+00  9.702885684E+02  9.702885684E+02  0.000000000E+00  0.00000E+00  9.000E+00
      21    -1     0     0   501   502  0.000000000E+00  0.000000000E+00 -5.468926341E+01  5.468926341E+01  0.000000000E+00  0.00000E+00  9.000E+00
      25     1     1     2     0     0 -4.778218424E+01 -1.596047678E+02  4.687328347E+02  5.129252279E+02  1.250000000E+02  0.00000E+00  9.000E+00
      25     1     1     2     0     0  7.396861344E+01  1.573580775E+02  3.385425044E+02  4.005857556E+02  1.250000000E+02  0.00000E+00  9.000E+00
      -1     1     1     2     0   502 -2.618642921E+01  2.246690373E+00  1.083239659E+02  1.114668483E+02  1.907348633E-06  0.00000E+00  9.000E+00
#rwgt            1           1   4.0769544788261787E-002           5      314259           0
</event>
<event>
      5   9999  3.79277E-02  5.70189E+01 -1.00000E+00  1.35897E-01
      21    -1     0     0   502   501  0.000000000E+00  0.000000000E+00  1.547029472E+02  1.547029472E+02  0.000000000E+00  0.00000E+00  9.000E+00
      -4    -1     0     0     0   502  0.000000000E+00  0.000000000E+00 -7.352357060E+02  7.352357060E+02  0.000000000E+00  0.00000E+00  9.000E+00
      25     1     1     2     0     0 -3.188004279E+01 -1.476141162E+02 -1.944285099E+02  2.761045272E+02  1.250000000E+02  0.00000E+00  9.000E+00
      25     1     1     2     0     0  8.855232741E+01  1.538919773E+02  6.377282514E+00  2.172324218E+02  1.250000000E+02  0.00000E+00  9.000E+00
      -4     1     1     2     0   501 -5.667228462E+01 -6.277861066E+00 -3.924815313E+02  3.966017042E+02  5.394796609E-06  0.00000E+00  9.000E+00
#rwgt            1           1   4.1770764515578984E-002           5      314467           0
</event>
<event>
      5   9999  3.79277E-02  1.81672E+02 -1.00000E+00  1.13189E-01
      21    -1     0     0   502   501  0.000000000E+00  0.000000000E+00  3.144154682E+02  3.144154682E+02  0.000000000E+00  0.00000E+00  9.000E+00
      21    -1     0     0   511   502  0.000000000E+00  0.000000000E+00 -4.022075939E+02  4.022075939E+02  0.000000000E+00  0.00000E+00  9.000E+00
      25     1     1     2     0     0  2.284828547E+02  1.409872032E+02 -1.169882636E+02  3.184227696E+02  1.250000000E+02  0.00000E+00  9.000E+00
      25     1     1     2     0     0 -1.475343377E+02  2.165387546E+01  7.872171539E+01  2.098984983E+02  1.250000000E+02  0.00000E+00  9.000E+00
      21     1     1     2   511   501 -8.094851695E+01 -1.626410787E+02 -4.952557756E+01  1.883017942E+02  3.162979880E-06  0.00000E+00  9.000E+00
#rwgt            2          11   2.2029849058481758E-003           5      314802           0
</event>
<event>
      5   9999  3.79277E-02  5.19149E+01 -1.00000E+00  1.38151E-01
      21    -1     0     0   502   501  0.000000000E+00  0.000000000E+00  4.318931221E+02  4.318931221E+02  0.000000000E+00  0.00000E+00  9.000E+00
      21    -1     0     0   512   502  0.000000000E+00  0.000000000E+00 -1.365855582E+02  1.365855582E+02  0.000000000E+00  0.00000E+00  9.000E+00
      25     1     1     2     0     0  1.350773229E+02  4.989762779E+01  2.306904505E+02  2.992970771E+02  1.250000000E+02  0.00000E+00  9.000E+00
      25     1     1     2     0     0 -1.335255469E+02 -1.017893596E+02  5.434275932E+01  2.162597533E+02  1.250000000E+02  0.00000E+00  9.000E+00
      21     1     1     2   512   501 -1.551775969E+00  5.189173182E+01  1.027435411E+01  5.292184986E+01  6.078504936E-07  0.00000E+00  9.000E+00
#rwgt            1           1   4.6555310698007085E-002           5      314837           0
</event>
<event>
      5   9999  3.79277E-02  9.02725E+00 -1.00000E+00  2.01039E-01
       2    -1     0     0   502     0  0.000000000E+00  0.000000000E+00  7.668211241E+02  7.668211241E+02  0.000000000E+00  0.00000E+00  9.000E+00
      21    -1     0     0   501   502  0.000000000E+00  0.000000000E+00 -2.132608385E+02  2.132608385E+02  0.000000000E+00  0.00000E+00  9.000E+00
      25     1     1     2     0     0  3.980676208E+01  9.687762852E+01 -1.115041775E+02  1.975551437E+02  1.250000000E+02  0.00000E+00  9.000E+00
      25     1     1     2     0     0 -4.784825902E+01 -9.277572054E+01  5.426117236E+01  1.716568235E+02  1.250000000E+02  0.00000E+00  9.000E+00
       2     1     1     2   501     0  8.041496939E+00 -4.101907983E+00  6.108032907E+02  6.108699954E+02  0.000000000E+00  0.00000E+00  9.000E+00
#rwgt            1           1   3.3338387456702409E-002           5      314979           0
</event>
<event>
      5   9999  3.79277E-02  2.06817E+01 -1.00000E+00  1.65177E-01
      21    -1     0     0   502   501  0.000000000E+00  0.000000000E+00  1.742407435E+02  1.742407435E+02  0.000000000E+00  0.00000E+00  9.000E+00
      -1    -1     0     0     0   502  0.000000000E+00  0.000000000E+00 -1.023376799E+03  1.023376799E+03  0.000000000E+00  0.00000E+00  9.000E+00
      25     1     1     2     0     0 -1.712449290E+02 -3.018880020E+01 -6.846467033E+01  2.248301591E+02  1.250000000E+02  0.00000E+00  9.000E+00
      25     1     1     2     0     0  1.521583906E+02  3.815361513E+01 -8.941622814E+00  2.007805439E+02  1.250000000E+02  0.00000E+00  9.000E+00
      -1     1     1     2     0   501  1.908653841E+01 -7.964814924E+00 -7.717297622E+02  7.720068394E+02  1.078959322E-05  0.00000E+00  9.000E+00
#rwgt            1           1   3.6523345436551329E-002           5      315223           0
</event>
<event>
      5   9999  3.79277E-02  1.81937E+01 -1.00000E+00  1.69834E-01
      21    -1     0     0   502   511  0.000000000E+00  0.000000000E+00  4.815532614E+02  4.815532614E+02  0.000000000E+00  0.00000E+00  9.000E+00
      21    -1     0     0   501   502  0.000000000E+00  0.000000000E+00 -1.836498979E+02  1.836498979E+02  0.000000000E+00  0.00000E+00  9.000E+00
      25     1     1     2     0     0 -1.653412201E+02 -1.091034402E+02  1.865635458E+02  2.994532290E+02  1.250000000E+02  0.00000E+00  9.000E+00
      25     1     1     2     0     0  1.699630811E+02  1.267003343E+02 -6.822662926E+00  2.461949886E+02  1.250000000E+02  0.00000E+00  9.000E+00
      21     1     1     2   501   511 -4.621861034E+00 -1.759689408E+01  1.181624806E+02  1.195549418E+02  2.336015456E-06  0.00000E+00  9.000E+00
#rwgt            1           1   3.0786553701551641E-002           5      315490           0
</event>
<event>
      5   9999  3.79277E-02  6.11355E+01 -1.00000E+00  1.34270E-01
      21    -1     0     0   502   501  0.000000000E+00  0.000000000E+00  9.262261726E+02  9.262261726E+02  0.000000000E+00  0.00000E+00  9.000E+00
      21    -1     0     0   501   512  0.000000000E+00  0.000000000E+00 -1.595679465E+02  1.595679465E+02  0.000000000E+00  0.00000E+00  9.000E+00
      25     1     1     2     0     0 -4.720588993E+01 -5.905036573E+00  7.590405518E+02  7.707339520E+02  1.250000000E+02  0.00000E+00  9.000E+00
      25     1     1     2     0     0  9.167319821E+01  4.785990671E+01  1.098624518E+02  1.959318868E+02  1.250000000E+02  0.00000E+00  9.000E+00
      21     1     1     2   502   512 -4.446730828E+01 -4.195487014E+01 -1.022447775E+02  1.191282803E+02  1.348699152E-06  0.00000E+00  9.000E+00
#rwgt            1           1   4.3178610305322225E-002           5      315698           0
</event>
<event>
      5   9999  3.79277E-02  3.33475E+01 -1.00000E+00  1.49916E-01
      21    -1     0     0   502   501  0.000000000E+00  0.000000000E+00  1.873612133E+02  1.873612133E+02  0.000000000E+00  0.00000E+00  9.000E+00
      21    -1     0     0   501   511  0.000000000E+00  0.000000000E+00 -2.143485765E+02  2.143485765E+02  0.000000000E+00  0.00000E+00  9.000E+00
      25     1     1     2     0     0  2.970844903E+01  1.470606228E+02 -3.335289238E+00  1.953088397E+02  1.250000000E+02  0.00000E+00  9.000E+00
      25     1     1     2     0     0 -2.513975876E+01 -1.140275578E+02 -1.370553828E+01  1.716016701E+02  1.250000000E+02  0.00000E+00  9.000E+00
      21     1     1     2   502   511 -4.568690269E+00 -3.303306498E+01 -9.946535700E+00  3.479927995E+01  5.057621821E-07  0.00000E+00  9.000E+00
#rwgt            1           1   3.2361820653112397E-002           5      315976           0
</event>
<event>
      5   9999  3.79277E-02  5.81412E+01 -1.00000E+00  1.35438E-01
      21    -1     0     0   502   501  0.000000000E+00  0.000000000E+00  5.655203716E+02  5.655203716E+02  0.000000000E+00  0.00000E+00  9.000E+00
      21    -1     0     0   501   512  0.000000000E+00  0.000000000E+00 -1.187412878E+03  1.187412878E+03  0.000000000E+00  0.00000E+00  9.000E+00
      25     1     1     2     0     0 -2.784851883E+02  4.400178688E+01 -6.868098934E+02  7.528764753E+02  1.250000000E+02  0.00000E+00  9.000E+00
      25     1     1     2     0     0  3.352591604E+02 -5.653650063E+01  4.685550129E+02  5.922532234E+02  1.250000000E+02  0.00000E+00  9.000E+00
      21     1     1     2   502   512 -5.677397209E+01  1.253471375E+01 -4.036376258E+02  4.078035506E+02  5.394796609E-06  0.00000E+00  9.000E+00
#rwgt            1           1   2.9485650967039648E-002           5      316189           0
</event>
<event>
      5   9999  3.79277E-02  7.25917E+01 -1.00000E+00  1.30426E-01
      21    -1     0     0   502   511  0.000000000E+00  0.000000000E+00  4.850219547E+02  4.850219547E+02  0.000000000E+00  0.00000E+00  9.000E+00
      21    -1     0     0   501   502  0.000000000E+00  0.000000000E+00 -2.092622485E+02  2.092622485E+02  0.000000000E+00  0.00000E+00  9.000E+00
      25     1     1     2     0     0  1.767738163E+02 -3.645633311E+01  1.569662882E+02  2.698915745E+02  1.250000000E+02  0.00000E+00  9.000E+00
      25     1     1     2     0     0 -2.455474077E+02  1.322380432E+01 -1.057098882E+01  2.760527925E+02  1.250000000E+02  0.00000E+00  9.000E+00
      21     1     1     2   501   511  6.877359144E+01  2.323252879E+01  1.293644068E+02  1.483398363E+02  0.000000000E+00  0.00000E+00  9.000E+00
#rwgt            1           1   3.8684487325813970E-002           5      316430           0
</event>
<event>
      5   9999  3.79277E-02  1.34000E+02 -1.00000E+00  1.18369E-01
      21    -1     0     0   512   501  0.000000000E+00  0.000000000E+00  1.145109523E+03  1.145109523E+03  0.000000000E+00  0.00000E+00  9.000E+00
      21    -1     0     0   501   502  0.000000000E+00  0.000000000E+00 -1.442739300E+03  1.442739300E+03  0.000000000E+00  0.00000E+00  9.000E+00
      25     1     1     2     0     0  5.263046825E+01  9.368965089E+01 -1.210975559E+03  1.222143413E+03  1.250000000E+02  0.00000E+00  9.000E+00
      25     1     1     2     0     0 -6.558226270E+01  3.968277200E+01 -1.979593373E+02  2.463506744E+02  1.250000000E+02  0.00000E+00  9.000E+00
      21     1     1     2   512   502  1.295179445E+01 -1.333724229E+02  1.111305120E+03  1.119354735E+03  1.525878906E-05  0.00000E+00  9.000E+00
#rwgt            1           1   4.5985714537736019E-002           5      316664           0
</event>
<event>
      5   9999  3.79277E-02  8.14909E+01  7.55638E-03  1.27963E-01
       1    -1     0     0   501     0  0.000000000E+00  0.000000000E+00  1.117580838E+03  1.117580838E+03  0.000000000E+00  0.00000E+00  9.000E+00
      -1    -1     0     0     0   502  0.000000000E+00  0.000000000E+00 -5.809407782E+01  5.809407782E+01  0.000000000E+00  0.00000E+00  9.000E+00
      25     1     1     2     0     0  4.176519969E+01 -1.231695208E+02  4.042945961E+02  4.427123029E+02  1.250000000E+02  0.00000E+00  9.000E+00
      25     1     1     2     0     0  2.855528822E+01  1.643495319E+02  2.802816122E+02  3.492978031E+02  1.250000000E+02  0.00000E+00  9.000E+00
      21     1     1     2   501   502 -7.032048791E+01 -4.118001107E+01  3.749105514E+02  3.836648093E+02  7.629394531E-06  0.00000E+00  9.000E+00
#rwgt            3           6   2.3373690400387445E-005           5      316811           0
</event>
<event>
      5   9999  3.79277E-02  3.98272E+01 -1.00000E+00  1.44957E-01
      21    -1     0     0   502   501  0.000000000E+00  0.000000000E+00  3.191974455E+02  3.191974455E+02  0.000000000E+00  0.00000E+00  9.000E+00
      21    -1     0     0   511   502  0.000000000E+00  0.000000000E+00 -3.888220192E+02  3.888220192E+02  0.000000000E+00  0.00000E+00  9.000E+00
      25     1     1     2     0     0 -2.215418664E+02 -1.147549391E+02 -1.460684540E+02  3.149769640E+02  1.250000000E+02  0.00000E+00  9.000E+00
      25     1     1     2     0     0  2.074775001E+02  7.749367509E+01  1.600127457E+02  3.004684036E+02  1.250000000E+02  0.00000E+00  9.000E+00
      21     1     1     2   511   501  1.406436623E+01  3.726126397E+01 -8.356886550E+01  9.257409719E+01  9.536743164E-07  0.00000E+00  9.000E+00
#rwgt            1           1   2.8878873610567266E-002           5      316830           0
</event>
<event>
      5   9999  3.79277E-02  2.22919E+01 -1.00000E+00  1.62573E-01
      21    -1     0     0   502   501  0.000000000E+00  0.000000000E+00  1.748783606E+02  1.748783606E+02  0.000000000E+00  0.00000E+00  9.000E+00
      21    -1     0     0   512   502  0.000000000E+00  0.000000000E+00 -4.739744176E+02  4.739744176E+02  0.000000000E+00  0.00000E+00  9.000E+00
      25     1     1     2     0     0  1.890518801E+02  4.272719869E+01 -3.098190262E+01  2.327039002E+02  1.250000000E+02  0.00000E+00  9.000E+00
      25     1     1     2     0     0 -1.690057800E+02 -5.247828594E+01 -8.669012803E+01  2.333604561E+02  1.250000000E+02  0.00000E+00  9.000E+00
      21     1     1     2   512   501 -2.004610011E+01  9.751087260E+00 -1.814240264E+02  1.827884219E+02  0.000000000E+00  0.00000E+00  9.000E+00
#rwgt            1           1  0.28551357378520792                5      317018           0
</event>
<event>
      5   9999  3.79277E-02  1.74969E+01 -1.00000E+00  1.71307E-01
      21    -1     0     0   511   501  0.000000000E+00  0.000000000E+00  5.112747035E+01  5.112747035E+01  0.000000000E+00  0.00000E+00  9.000E+00
      21    -1     0     0   501   502  0.000000000E+00  0.000000000E+00 -8.787781130E+02  8.787781130E+02  0.000000000E+00  0.00000E+00  9.000E+00
      25     1     1     2     0     0 -1.944028379E+01 -1.116412891E+01 -7.487470311E+02  7.594403722E+02  1.250000000E+02  0.00000E+00  9.000E+00
      25     1     1     2     0     0  8.911337098E+00  2.513854991E+01 -8.312427396E+01  1.524664014E+02  1.250000000E+02  0.00000E+00  9.000E+00
      21     1     1     2   511   502  1.052894669E+01 -1.397442100E+01  4.220662429E+00  1.799880974E+01  3.576278687E-07  0.00000E+00  9.000E+00
#rwgt            1           1   4.7296126091545751E-002           5      317186           0
</event>
<event>
      5   9999  3.79277E-02  2.03680E+01 -1.00000E+00  1.65718E-01
       2    -1     0     0   502     0  0.000000000E+00  0.000000000E+00  3.676655927E+03  3.676655927E+03  0.000000000E+00  0.00000E+00  9.000E+00
      21    -1     0     0   501   502  0.000000000E+00  0.000000000E+00 -1.183906110E+01  1.183906110E+01  0.000000000E+00  0.00000E+00  9.000E+00
      25     1     1     2     0     0 -5.405443007E+00  2.706331971E+01  2.267514014E+03  2.271124489E+03  1.250000000E+02  0.00000E+00  9.000E+00
      25     1     1     2     0     0  8.750440035E+00 -6.971895154E+00  3.865500684E+02  4.064125157E+02  1.250000000E+02  0.00000E+00  9.000E+00
       2     1     1     2   501     0 -3.344997028E+00 -2.009142456E+01  1.010752783E+03  1.010957983E+03  1.078959322E-05  0.00000E+00  9.000E+00
#rwgt            1           1   6.4146365946147546E-002           5      317391           0
</event>
<event>
      5   9999  3.79277E-02  2.04247E+01 -1.00000E+00  1.65620E-01
       2    -1     0     0   502     0  0.000000000E+00  0.000000000E+00  3.970676386E+03  3.970676386E+03  0.000000000E+00  0.00000E+00  9.000E+00
      21    -1     0     0   501   502  0.000000000E+00  0.000000000E+00 -8.337033451E+01  8.337033451E+01  0.000000000E+00  0.00000E+00  9.000E+00
      25     1     1     2     0     0  8.722754571E+01 -7.383195851E+01  5.568385838E+02  5.820257823E+02  1.250000000E+02  0.00000E+00  9.000E+00
      25     1     1     2     0     0 -7.311473111E+01  8.859668536E+01  3.109982895E+01  1.725900806E+02  1.250000000E+02  0.00000E+00  9.000E+00
       2     1     1     2   501     0 -1.411281460E+01 -1.476472685E+01  3.299367639E+03  3.299430857E+03  0.000000000E+00  0.00000E+00  9.000E+00
#rwgt            1           1   4.6645562388128281E-002           5      317641           0
</event>
<event>
      5   9999 -3.79277E-02  6.68047E+01 -1.00000E+00  1.32257E-01
      21    -1     0     0   502   501  0.000000000E+00  0.000000000E+00  7.040580620E+02  7.040580620E+02  0.000000000E+00  0.00000E+00  9.000E+00
      21    -1     0     0   501   511  0.000000000E+00  0.000000000E+00 -2.181498480E+02  2.181498480E+02  0.000000000E+00  0.00000E+00  9.000E+00
      25     1     1     2     0     0  2.524008756E+02  2.181068119E+01  5.084377282E+02  5.816492338E+02  1.250000000E+02  0.00000E+00  9.000E+00
      25     1     1     2     0     0 -2.223973928E+02  3.787736187E+01  2.417652988E+01  2.590459409E+02  1.250000000E+02  0.00000E+00  9.000E+00
      21     1     1     2   502   511 -3.000348272E+01 -5.968804305E+01 -4.670604406E+01  8.151273527E+01  1.168007728E-06  0.00000E+00  9.000E+00
#rwgt            1           1  -9.2959422479942308E-002           5      317771           0
</event>
<event>
      5   9999  3.79277E-02  6.36897E+01 -1.00000E+00  1.33333E-01
      21    -1     0     0   502   512  0.000000000E+00  0.000000000E+00  3.162166611E+02  3.162166611E+02  0.000000000E+00  0.00000E+00  9.000E+00
      21    -1     0     0   501   502  0.000000000E+00  0.000000000E+00 -5.253597639E+02  5.253597639E+02  0.000000000E+00  0.00000E+00  9.000E+00
      25     1     1     2     0     0 -8.885498433E+01  1.181371788E+01  1.159151271E+02  1.926034498E+02  1.250000000E+02  0.00000E+00  9.000E+00
      25     1     1     2     0     0  1.367528098E+02  3.016450910E+01 -4.615998715E+02  4.983078064E+02  1.250000000E+02  0.00000E+00  9.000E+00
      21     1     1     2   501   512 -4.789782546E+01 -4.197822698E+01  1.365416415E+02  1.506651688E+02  2.697398305E-06  0.00000E+00  9.000E+00
#rwgt            1           1   2.9272988128612211E-002           5      317896           0
</event>
<event>
      5   9999  3.79277E-02  1.12103E+01 -1.00000E+00  1.90191E-01
      21    -1     0     0   511   501  0.000000000E+00  0.000000000E+00  1.294005762E+02  1.294005762E+02  0.000000000E+00  0.00000E+00  9.000E+00
      21    -1     0     0   501   502  0.000000000E+00  0.000000000E+00 -3.442551250E+02  3.442551250E+02  0.000000000E+00  0.00000E+00  9.000E+00
      25     1     1     2     0     0  6.468642847E+01 -2.364687122E+01  6.028923461E+01  1.549299853E+02  1.250000000E+02  0.00000E+00  9.000E+00
      25     1     1     2     0     0 -5.494641156E+01  1.809686432E+01 -2.749418421E+02  3.075136114E+02  1.250000000E+02  0.00000E+00  9.000E+00
      21     1     1     2   511   502 -9.740016911E+00  5.550006903E+00 -2.019413342E-01  1.121210446E+01  2.565857076E-07  0.00000E+00  9.000E+00
#rwgt            1           1   3.3970332639704434E-002           5      317984           0
</event>
<event>
      5   9999  3.79277E-02  3.39134E+01 -1.00000E+00  1.49431E-01
      21    -1     0     0   502   501  0.000000000E+00  0.000000000E+00  4.046133859E+02  4.046133859E+02  0.000000000E+00  0.00000E+00  9.000E+00
      21    -1     0     0   501   512  0.000000000E+00  0.000000000E+00 -1.039519431E+02  1.039519431E+02  0.000000000E+00  0.00000E+00  9.000E+00
      25     1     1     2     0     0 -1.500119899E+02 -3.074226374E+00  1.144434248E+02  2.263522597E+02  1.250000000E+02  0.00000E+00  9.000E+00
      25     1     1     2     0     0  1.162630174E+02  6.410202049E+00  1.792022200E+02  2.475815332E+02  1.250000000E+02  0.00000E+00  9.000E+00
      21     1     1     2   502   512  3.374897247E+01 -3.335975675E+00  7.015797949E+00  3.463153616E+01  9.386548846E-07  0.00000E+00  9.000E+00
#rwgt            1           1   3.6044563095014269E-002           5      318385           0
</event>
<event>
      5   9999  3.79277E-02  9.24418E+01 -1.00000E+00  1.25383E-01
       2    -1     0     0   502     0  0.000000000E+00  0.000000000E+00  1.831039021E+03  1.831039021E+03  0.000000000E+00  0.00000E+00  9.000E+00
      21    -1     0     0   501   502  0.000000000E+00  0.000000000E+00 -3.199285111E+01  3.199285111E+01  0.000000000E+00  0.00000E+00  9.000E+00
      25     1     1     2     0     0 -1.941247867E+01 -1.021530333E+02  3.540451457E+02  3.895960110E+02  1.250000000E+02  0.00000E+00  9.000E+00
      25     1     1     2     0     0  1.117315154E+02  9.739023699E+01  8.997636563E+02  9.204175287E+02  1.250000000E+02  0.00000E+00  9.000E+00
       2     1     1     2   501     0 -9.231903678E+01  4.762796315E+00  5.452373674E+02  5.530183321E+02  1.321449896E-05  0.00000E+00  9.000E+00
#rwgt            1           1   6.3302453755069210E-002           5      318551           0
</event>
<event>
      5   9999  3.79277E-02  4.21495E+01 -1.00000E+00  1.43444E-01
       1    -1     0     0   502     0  0.000000000E+00  0.000000000E+00  2.947170881E+03  2.947170881E+03  0.000000000E+00  0.00000E+00  9.000E+00
      21    -1     0     0   501   502  0.000000000E+00  0.000000000E+00 -4.633947500E+01  4.633947500E+01  0.000000000E+00  0.00000E+00  9.000E+00
      25     1     1     2     0     0  1.055504565E+02 -4.059286795E+01  3.934841553E+02  4.280694573E+02  1.250000000E+02  0.00000E+00  9.000E+00
      25     1     1     2     0     0 -9.904151064E+01  8.223673349E+01  2.501535670E+02  3.078537124E+02  1.250000000E+02  0.00000E+00  9.000E+00
       1     1     1     2   501     0 -6.508945906E+00 -4.164386553E+01  2.257193683E+03  2.257587186E+03  5.285799584E-05  0.00000E+00  9.000E+00
#rwgt            2          17   2.3957855204861234E-004           5      318621           0
</event>
<event>
      5   9999  3.79277E-02  2.54957E+02 -1.00000E+00  1.07940E-01
      21    -1     0     0   502   501  0.000000000E+00  0.000000000E+00  1.334876736E+03  1.334876736E+03  0.000000000E+00  0.00000E+00  9.000E+00
       2    -1     0     0   501     0  0.000000000E+00  0.000000000E+00 -8.427056091E+02  8.427056091E+02  0.000000000E+00  0.00000E+00  9.000E+00
      25     1     1     2     0     0 -4.363580979E+02 -3.212560093E+02  8.232446484E+02  9.934639220E+02  1.250000000E+02  0.00000E+00  9.000E+00
      25     1     1     2     0     0  1.820628017E+02  3.029037386E+02  3.149478803E+02  4.896066849E+02  1.250000000E+02  0.00000E+00  9.000E+00
       2     1     1     2   502     0  2.542952962E+02  1.835227079E+01 -6.460214016E+02  6.945117385E+02  1.525878906E-05  0.00000E+00  9.000E+00
#rwgt            2          13   1.0607071031820210E-003           5      318670           0
</event>
<event>
      5   9999  3.79277E-02  1.15659E+02 -1.00000E+00  1.21051E-01
      21    -1     0     0   502   501  0.000000000E+00  0.000000000E+00  7.722934595E+01  7.722934595E+01  0.000000000E+00  0.00000E+00  9.000E+00
      21    -1     0     0   501   511  0.000000000E+00  0.000000000E+00 -9.228573678E+02  9.228573678E+02  0.000000000E+00  0.00000E+00  9.000E+00
      25     1     1     2     0     0  2.495261440E+01  9.730506434E+01 -5.348574854E+02  5.583801914E+02  1.250000000E+02  0.00000E+00  9.000E+00
      25     1     1     2     0     0 -2.312308573E+01  1.833970063E+01 -2.156960892E+01  1.302354397E+02  1.250000000E+02  0.00000E+00  9.000E+00
      21     1     1     2   502   511 -1.829528670E+00 -1.156447650E+02 -2.892009276E+02  3.114710827E+02  5.394796609E-06  0.00000E+00  9.000E+00
#rwgt            1           1   2.8827184814053594E-002           5      318839           0
</event>
<event>
      5   9999  3.79277E-02  2.39731E+01 -1.00000E+00  1.60127E-01
      21    -1     0     0   502   501  0.000000000E+00  0.000000000E+00  1.331752502E+03  1.331752502E+03  0.000000000E+00  0.00000E+00  9.000E+00
      21    -1     0     0   512   502  0.000000000E+00  0.000000000E+00 -2.812372748E+01  2.812372748E+01  0.000000000E+00  0.00000E+00  9.000E+00
      25     1     1     2     0     0  6.325040448E+01  4.134488871E+01  7.616437328E+02  7.755231713E+02  1.250000000E+02  0.00000E+00  9.000E+00
      25     1     1     2     0     0 -5.490550563E+01 -1.887105911E+01  5.431380042E+02  5.603522312E+02  1.250000000E+02  0.00000E+00  9.000E+00
      21     1     1     2   512   501 -8.344898849E+00 -2.247382960E+01 -1.152962858E+00  2.400082659E+01  1.288153458E-06  0.00000E+00  9.000E+00
#rwgt            1           1   6.5227803252748143E-002           5      318948           0
</event>
<event>
      5   9999  3.79277E-02  2.78900E+01 -1.00000E+00  1.55273E-01
      21    -1     0     0   502   501  0.000000000E+00  0.000000000E+00  2.815529615E+02  2.815529615E+02  0.000000000E+00  0.00000E+00  9.000E+00
      21    -1     0     0   501   511  0.000000000E+00  0.000000000E+00 -1.881894750E+02  1.881894750E+02  0.000000000E+00  0.00000E+00  9.000E+00
      25     1     1     2     0     0 -4.570677882E+01  1.615155995E+02  1.109930817E+02  2.368984227E+02  1.250000000E+02  0.00000E+00  9.000E+00
      25     1     1     2     0     0  2.637177937E+01 -1.414155754E+02  1.349441940E+01  1.910521789E+02  1.250000000E+02  0.00000E+00  9.000E+00
      21     1     1     2   502   511  1.933499946E+01 -2.010002414E+01 -3.112401461E+01  4.179183484E+01  4.768371582E-07  0.00000E+00  9.000E+00
#rwgt            1           1   3.0164826453968369E-002           5      319060           0
</event>
<event>
      5   9999  3.79277E-02  2.56912E+01 -1.00000E+00  1.57869E-01
      21    -1     0     0   512   501  0.000000000E+00  0.000000000E+00  4.597731873E+02  4.597731873E+02  0.000000000E+00  0.00000E+00  9.000E+00
      21    -1     0     0   501   502  0.000000000E+00  0.000000000E+00 -1.968722974E+02  1.968722974E+02  0.000000000E+00  0.00000E+00  9.000E+00
      25     1     1     2     0     0 -2.369327561E+02  9.048733870E+00  1.432797504E+01  2.684200092E+02  1.250000000E+02  0.00000E+00  9.000E+00
      25     1     1     2     0     0  2.385387082E+02 -3.468971617E+01  2.174599368E+02  3.478762939E+02  1.250000000E+02  0.00000E+00  9.000E+00
      21     1     1     2   512   502 -1.605952182E+00  2.564098230E+01  3.111297805E+01  4.034918164E+01  5.840038640E-07  0.00000E+00  9.000E+00
#rwgt            1           1   3.3368178083491455E-002           5      319302           0
</event>
<event>
      5   9999  3.79277E-02  7.40157E+01 -1.00000E+00  1.30005E-01
      21    -1     0     0   502   501  0.000000000E+00  0.000000000E+00  3.910559193E+01  3.910559193E+01  0.000000000E+00  0.00000E+00  9.000E+00
       2    -1     0     0   501     0  0.000000000E+00  0.000000000E+00 -2.549767801E+03  2.549767801E+03  0.000000000E+00  0.00000E+00  9.000E+00
      25     1     1     2     0     0 -1.194066847E+01 -7.010958653E+01 -7.375420914E+02  7.514328116E+02  1.250000000E+02  0.00000E+00  9.000E+00
      25     1     1     2     0     0 -2.070860732E+01  3.684062393E+00 -9.681186137E+01  1.594990760E+02  1.250000000E+02  0.00000E+00  9.000E+00
       2     1     1     2   502     0  3.264927579E+01  6.642552414E+01 -1.676308256E+03  1.677941505E+03  0.000000000E+00  0.00000E+00  9.000E+00
#rwgt            1           1   3.8439241311069627E-002           5      319646           0
</event>
<event>
      5   9999  3.79277E-02  1.12899E+02 -1.00000E+00  1.21504E-01
      21    -1     0     0   511   501  0.000000000E+00  0.000000000E+00  6.975966193E+02  6.975966193E+02  0.000000000E+00  0.00000E+00  9.000E+00
      21    -1     0     0   501   502  0.000000000E+00  0.000000000E+00 -4.455058603E+02  4.455058603E+02  0.000000000E+00  0.00000E+00  9.000E+00
      25     1     1     2     0     0 -1.848985677E+01  1.212762511E+01 -3.783352042E+02  3.990632542E+02  1.250000000E+02  0.00000E+00  9.000E+00
      25     1     1     2     0     0 -9.438672014E+01 -1.438712252E+01  6.967053764E+01  1.720314682E+02  1.250000000E+02  0.00000E+00  9.000E+00
      21     1     1     2   511   502  1.128765769E+02  2.259497410E+00  5.607554256E+02  5.720077572E+02  1.078959322E-05  0.00000E+00  9.000E+00
#rwgt            2          11   3.1776986303722961E-003           5      319869           0
</event>
<event>
      5   9999  3.79277E-02  2.25809E+01 -1.00000E+00  1.62134E-01
      21    -1     0     0   502   501  0.000000000E+00  0.000000000E+00  1.323450302E+02  1.323450302E+02  0.000000000E+00  0.00000E+00  9.000E+00
      21    -1     0     0   512   502  0.000000000E+00  0.000000000E+00 -1.283289900E+03  1.283289900E+03  0.000000000E+00  0.00000E+00  9.000E+00
      25     1     1     2     0     0 -1.736400706E+02 -2.206963154E+02 -1.210104903E+02  3.303426653E+02  1.250000000E+02  0.00000E+00  9.000E+00
      25     1     1     2     0     0  1.628171747E+02  2.405145259E+02 -9.131812435E+02  9.663755238E+02  1.250000000E+02  0.00000E+00  9.000E+00
      21     1     1     2   512   501  1.082289585E+01 -1.981821055E+01 -1.167531358E+02  1.189167409E+02  1.907348633E-06  0.00000E+00  9.000E+00
#rwgt            1           1   4.5234072215852947E-002           5      319889           0
</event>
<event>
      5   9999  3.79277E-02  2.06083E+02 -1.00000E+00  1.11176E-01
      21    -1     0     0   502   511  0.000000000E+00  0.000000000E+00  1.334656259E+02  1.334656259E+02  0.000000000E+00  0.00000E+00  9.000E+00
      21    -1     0     0   501   502  0.000000000E+00  0.000000000E+00 -1.779892071E+03  1.779892071E+03  0.000000000E+00  0.00000E+00  9.000E+00
      25     1     1     2     0     0  1.013711451E+01  1.764715582E+02 -8.076925135E+02  8.362040232E+02  1.250000000E+02  0.00000E+00  9.000E+00
      25     1     1     2     0     0  1.792344205E+02 -9.517702138E+01 -8.378253029E+02  8.710682413E+02  1.250000000E+02  0.00000E+00  9.000E+00
      21     1     1     2   501   511 -1.893715350E+02 -8.129453687E+01 -9.086290876E-01  2.060854328E+02  1.924356749E-06  0.00000E+00  9.000E+00
#rwgt            1           1   4.8677903704551079E-002           5      320081           0
</event>
<event>
      5   9999  3.79277E-02  1.75893E+01 -1.00000E+00  1.71107E-01
      21    -1     0     0   502   501  0.000000000E+00  0.000000000E+00  3.627796747E+02  3.627796747E+02  0.000000000E+00  0.00000E+00  9.000E+00
      21    -1     0     0   512   502  0.000000000E+00  0.000000000E+00 -2.611316442E+02  2.611316442E+02  0.000000000E+00  0.00000E+00  9.000E+00
      25     1     1     2     0     0 -1.284418171E+02  1.061826098E+02  2.412172122E+02  3.187205523E+02  1.250000000E+02  0.00000E+00  9.000E+00
      25     1     1     2     0     0  1.213905270E+02 -9.006850929E+01 -3.511230460E+01  1.992633191E+02  1.250000000E+02  0.00000E+00  9.000E+00
      21     1     1     2   512   501  7.051290167E+00 -1.611410049E+01 -1.044568772E+02  1.059274474E+02  1.348699152E-06  0.00000E+00  9.000E+00
#rwgt            1           1   3.6568421500249103E-002           5      320132           0
</event>
<event>
      5   9999  3.79277E-02  3.39957E+01 -1.00000E+00  1.49361E-01
      21    -1     0     0   502   501  0.000000000E+00  0.000000000E+00  5.446563477E+02  5.446563477E+02  0.000000000E+00  0.00000E+00  9.000E+00
       2    -1     0     0   501     0  0.000000000E+00  0.000000000E+00 -9.552986221E+02  9.552986221E+02  0.000000000E+00  0.00000E+00  9.000E+00
      25     1     1     2     0     0  8.244880890E+01  9.902042471E+01  3.841187042E+02  4.239988555E+02  1.250000000E+02  0.00000E+00  9.000E+00
      25     1     1     2     0     0 -4.922477695E+01 -9.181847244E+01  9.308062488E+01  1.874638986E+02  1.250000000E+02  0.00000E+00  9.000E+00
       2     1     1     2   502     0 -3.322403194E+01 -7.201952271E+00 -8.878416035E+02  8.884922156E+02  0.000000000E+00  0.00000E+00  9.000E+00
#rwgt            1           1   3.4998426528725722E-002           5      320341           0
</event>
<event>
      5   9999  3.79277E-02  5.02416E+01 -1.00000E+00  1.38956E-01
      -1    -1     0     0     0   501  0.000000000E+00  0.000000000E+00  8.437877222E+02  8.437877222E+02  0.000000000E+00  0.00000E+00  9.000E+00
      21    -1     0     0   501   502  0.000000000E+00  0.000000000E+00 -3.114282737E+02  3.114282737E+02  0.000000000E+00  0.00000E+00  9.000E+00
      25     1     1     2     0     0  3.135824069E+02 -3.423348707E+02  2.694595743E+02  5.511447649E+02  1.250000000E+02  0.00000E+00  9.000E+00
      25     1     1     2     0     0 -2.807105321E+02  3.803303229E+02  2.599124014E+02  5.537409266E+02  1.250000000E+02  0.00000E+00  9.000E+00
      -1     1     1     2     0   502 -3.287187483E+01 -3.799545221E+01  2.987472760E+00  5.033030436E+01  1.475741673E-06  0.00000E+00  9.000E+00
#rwgt            1           1  0.11002270103210814                5      320507           0
</event>
<event>
      5   9999  3.79277E-02  3.35617E+01 -1.00000E+00  1.49731E-01
      21    -1     0     0   502   501  0.000000000E+00  0.000000000E+00  4.642208503E+02  4.642208503E+02  0.000000000E+00  0.00000E+00  9.000E+00
      21    -1     0     0   501   511  0.000000000E+00  0.000000000E+00 -2.550026175E+02  2.550026175E+02  0.000000000E+00  0.00000E+00  9.000E+00
      25     1     1     2     0     0  1.423000871E+02 -6.873325600E+01  1.388489337E+02  2.446990022E+02  1.250000000E+02  0.00000E+00  9.000E+00
      25     1     1     2     0     0 -1.494097210E+02  3.593324905E+01  2.345165989E+02  3.069812670E+02  1.250000000E+02  0.00000E+00  9.000E+00
      21     1     1     2   502   511  7.109633887E+00  3.280000695E+01 -1.641472998E+02  1.675431986E+02  1.907348633E-06  0.00000E+00  9.000E+00
#rwgt            1           1   3.2677626250414295E-002           5      320690           0
</event>
<event>
      5   9999  3.79277E-02  2.83248E+01 -1.00000E+00  1.54793E-01
      21    -1     0     0   502   512  0.000000000E+00  0.000000000E+00  1.064189971E+03  1.064189971E+03  0.000000000E+00  0.00000E+00  9.000E+00
      21    -1     0     0   501   502  0.000000000E+00  0.000000000E+00 -3.209008349E+02  3.209008349E+02  0.000000000E+00  0.00000E+00  9.000E+00
      25     1     1     2     0     0  1.468033474E+02  3.813944919E+01 -2.318747866E+02  3.039683488E+02  1.250000000E+02  0.00000E+00  9.000E+00
      25     1     1     2     0     0 -1.323489026E+02 -1.378036545E+01  1.052223646E+02  2.107199006E+02  1.250000000E+02  0.00000E+00  9.000E+00
      21     1     1     2   501   512 -1.445444479E+01 -2.435908374E+01  8.699415586E+02  8.704025570E+02  1.525878906E-05  0.00000E+00  9.000E+00
#rwgt            1           1   3.5338897719064691E-002           5      320808           0
</event>
<event>
      5   9999 -3.79277E-02  6.89974E+01 -1.00000E+00  1.31539E-01
      21    -1     0     0   502   501  0.000000000E+00  0.000000000E+00  1.255135226E+02  1.255135226E+02  0.000000000E+00  0.00000E+00  9.000E+00
      21    -1     0     0   501   511  0.000000000E+00  0.000000000E+00 -7.687057705E+02  7.687057705E+02  0.000000000E+00  0.00000E+00  9.000E+00
      25     1     1     2     0     0  1.117028437E+02  2.173593869E+02 -2.799963897E+02  3.921040763E+02  1.250000000E+02  0.00000E+00  9.000E+00
      25     1     1     2     0     0 -4.283294686E+01 -2.215524263E+02 -2.049066060E+02  3.294417340E+02  1.250000000E+02  0.00000E+00  9.000E+00
      21     1     1     2   502   511 -6.886989685E+01  4.193039403E+00 -1.582892523E+02  1.726734828E+02  0.000000000E+00  0.00000E+00  9.000E+00
#rwgt            1           1 -0.19131858046612021                5      320979           0
</event>
<event>
      5   9999  3.79277E-02  1.43192E+01 -1.00000E+00  1.79305E-01
      21    -1     0     0   512   501  0.000000000E+00  0.000000000E+00  5.467573664E+01  5.467573664E+01  0.000000000E+00  0.00000E+00  9.000E+00
      21    -1     0     0   501   502  0.000000000E+00  0.000000000E+00 -1.000628717E+03  1.000628717E+03  0.000000000E+00  0.00000E+00  9.000E+00
      25     1     1     2     0     0  6.062546132E+01  5.814007756E+01 -8.627592179E+02  8.758048774E+02  1.250000000E+02  0.00000E+00  9.000E+00
      25     1     1     2     0     0 -5.798408441E+01 -4.406664553E+01 -7.416303077E+01  1.625705337E+02  1.250000000E+02  0.00000E+00  9.000E+00
      21     1     1     2   512   502 -2.641376911E+00 -1.407343203E+01 -9.030731300E+00  1.692904217E+01  3.769728732E-07  0.00000E+00  9.000E+00
#rwgt            1           1   5.5090502394443693E-002           5      321146           0
</event>
<event>
      5   9999  3.79277E-02  5.21557E+01 -1.00000E+00  1.38038E-01
      21    -1     0     0   502   511  0.000000000E+00  0.000000000E+00  4.392384178E+02  4.392384178E+02  0.000000000E+00  0.00000E+00  9.000E+00
      21    -1     0     0   501   502  0.000000000E+00  0.000000000E+00 -3.946590885E+02  3.946590885E+02  0.000000000E+00  0.00000E+00  9.000E+00
      25     1     1     2     0     0 -1.364275393E+02  8.251095394E+01 -1.371306172E+02  2.446432856E+02  1.250000000E+02  0.00000E+00  9.000E+00
      25     1     1     2     0     0  1.764178791E+02 -1.159921668E+02 -1.269225351E+02  2.762458701E+02  1.250000000E+02  0.00000E+00  9.000E+00
      21     1     1     2   501   511 -3.999033986E+01  3.348121282E+01  3.086324816E+02  3.130083507E+02  3.814697266E-06  0.00000E+00  9.000E+00
#rwgt            1           1   3.2442721797175958E-002           5      321386           0
</event>
<event>
      5   9999  3.79277E-02  5.14872E+01 -1.00000E+00  1.38353E-01
      21    -1     0     0   512   501  0.000000000E+00  0.000000000E+00  1.049005702E+03  1.049005702E+03  0.000000000E+00  0.00000E+00  9.000E+00
      21    -1     0     0   501   502  0.000000000E+00  0.000000000E+00 -3.867604661E+02  3.867604661E+02  0.000000000E+00  0.00000E+00  9.000E+00
      25     1     1     2     0     0 -1.897010700E+02 -9.643456975E+01 -3.116580361E+02  3.975447819E+02  1.250000000E+02  0.00000E+00  9.000E+00
      25     1     1     2     0     0  1.503618245E+02  6.321779865E+01  3.075869094E+02  3.699187413E+02  1.250000000E+02  0.00000E+00  9.000E+00
      21     1     1     2   512   502  3.933924545E+01  3.321677110E+01  6.663163626E+02  6.683026449E+02  1.078959322E-05  0.00000E+00  9.000E+00
#rwgt            1           1   4.1198709835798430E-002           5      321454           0
</event>
<event>
      5   9999  3.79277E-02  2.24183E+01 -1.00000E+00  1.62380E-01
      21    -1     0     0   502   501  0.000000000E+00  0.000000000E+00  4.999882437E+02  4.999882437E+02  0.000000000E+00  0.00000E+00  9.000E+00
      21    -1     0     0   501   511  0.000000000E+00  0.000000000E+00 -1.224828362E+02  1.224828362E+02  0.000000000E+00  0.00000E+00  9.000E+00
      25     1     1     2     0     0  6.129782078E+01  1.293891892E+02  3.510043562E+02  3.991591702E+02  1.250000000E+02  0.00000E+00  9.000E+00
      25     1     1     2     0     0 -4.774761651E+01 -1.472490004E+02  2.758068943E+01  2.008676117E+02  1.250000000E+02  0.00000E+00  9.000E+00
      21     1     1     2   502   511 -1.355020426E+01  1.785981126E+01 -1.079638146E+00  2.244429799E+01  5.333283594E-07  0.00000E+00  9.000E+00
#rwgt            1           1   4.1552288777009949E-002           5      321574           0
</event>
<event>
      5   9999  3.79277E-02  1.01082E+02 -1.00000E+00  1.23618E-01
      21    -1     0     0   502   512  0.000000000E+00  0.000000000E+00  2.266655695E+02  2.266655695E+02  0.000000000E+00  0.00000E+00  9.000E+00
      21    -1     0     0   501   502  0.000000000E+00  0.000000000E+00 -1.041739961E+03  1.041739961E+03  0.000000000E+00  0.00000E+00  9.000E+00
      25     1     1     2     0     0  2.507598564E+01  1.517307920E+01 -9.469406357E+02  9.556048320E+02  1.250000000E+02  0.00000E+00  9.000E+00
      25     1     1     2     0     0  1.962685553E+01 -1.058325092E+02  2.700499026E+01  1.671526338E+02  1.250000000E+02  0.00000E+00  9.000E+00
      21     1     1     2   501   512 -4.470284117E+01  9.065943005E+01  1.048612538E+02  1.456480649E+02  4.046097457E-06  0.00000E+00  9.000E+00
#rwgt            1           1   4.1268998187038691E-002           5      321792           0
</event>
<event>
      5   9999  3.79277E-02  6.76069E+01 -1.00000E+00  1.31990E-01
      21    -1     0     0   511   501  0.000000000E+00  0.000000000E+00  7.553484181E+01  7.553484181E+01  0.000000000E+00  0.00000E+00  9.000E+00
      21    -1     0     0   501   502  0.000000000E+00  0.000000000E+00 -1.079904440E+03  1.079904440E+03  0.000000000E+00  0.00000E+00  9.000E+00
      25     1     1     2     0     0  8.964050935E+01  8.722222962E+01 -1.255719081E+02  2.168788656E+02  1.250000000E+02  0.00000E+00  9.000E+00
      25     1     1     2     0     0 -1.539865221E+02 -1.079655595E+02 -8.146324097E+02  8.453516274E+02  1.250000000E+02  0.00000E+00  9.000E+00
      21     1     1     2   511   502  6.434601270E+01  2.074332992E+01 -6.416528022E+01  9.320878860E+01  9.536743164E-07  0.00000E+00  9.000E+00
#rwgt            1           1   4.1290213746329567E-002           5      321878           0
</event>
<event>
      5   9999  3.79277E-02  2.04255E+01 -1.00000E+00  1.65618E-01
      21    -1     0     0   502   512  0.000000000E+00  0.000000000E+00  7.831811988E+02  7.831811988E+02  0.000000000E+00  0.00000E+00  9.000E+00
      21    -1     0     0   501   502  0.000000000E+00  0.000000000E+00 -1.884928744E+02  1.884928744E+02  0.000000000E+00  0.00000E+00  9.000E+00
      25     1     1     2     0     0  4.416593307E+01 -1.540664406E+01 -1.418230059E+02  1.947479380E+02  1.250000000E+02  0.00000E+00  9.000E+00
      25     1     1     2     0     0 -6.257996779E+01  2.424553234E+01  2.316013136E+02  2.716031419E+02  1.250000000E+02  0.00000E+00  9.000E+00
      21     1     1     2   501   512  1.841403472E+01 -8.838888282E+00  5.049100168E+02  5.053229934E+02  7.629394531E-06  0.00000E+00  9.000E+00
#rwgt            1           1   3.8036481406193715E-002           5      322007           0
</event>
<event>
      5   9999 -3.79277E-02  2.28886E+01 -1.00000E+00  1.61676E-01
      21    -1     0     0   502   511  0.000000000E+00  0.000000000E+00  7.286708919E+02  7.286708919E+02  0.000000000E+00  0.00000E+00  9.000E+00
      21    -1     0     0   501   502  0.000000000E+00  0.000000000E+00 -2.337834632E+02  2.337834632E+02  0.000000000E+00  0.00000E+00  9.000E+00
      25     1     1     2     0     0 -1.017740566E+02 -5.811410382E+01 -1.117370546E+02  2.045614261E+02  1.250000000E+02  0.00000E+00  9.000E+00
      25     1     1     2     0     0  1.245512876E+02  6.036928616E+01  3.991839572E+01  1.907248077E+02  1.250000000E+02  0.00000E+00  9.000E+00
      21     1     1     2   501   511 -2.277723095E+01 -2.255182343E+00  5.667060876E+02  5.671681213E+02  1.321449896E-05  0.00000E+00  9.000E+00
#rwgt            1           1 -0.19976995964270508                5      322171           0
</event>
<event>
      5   9999  3.79277E-02  8.72905E+01 -1.00000E+00  1.26543E-01
      21    -1     0     0   502   501  0.000000000E+00  0.000000000E+00  1.214867738E+03  1.214867738E+03  0.000000000E+00  0.00000E+00  9.000E+00
      21    -1     0     0   512   502  0.000000000E+00  0.000000000E+00 -1.277204803E+02  1.277204803E+02  0.000000000E+00  0.00000E+00  9.000E+00
      25     1     1     2     0     0 -3.206666445E+02 -8.738585796E+01  4.201923476E+02  5.501363413E+02  1.250000000E+02  0.00000E+00  9.000E+00
      25     1     1     2     0     0  2.669807866E+02  1.562150853E+02  5.808133870E+02  6.698142159E+02  1.250000000E+02  0.00000E+00  9.000E+00
      21     1     1     2   512   501  5.368585791E+01 -6.882922734E+01  8.614152282E+01  1.226376607E+02  1.907348633E-06  0.00000E+00  9.000E+00
#rwgt            1           1   3.1052358643353546E-002           5      322354           0
</event>
<event>
      5   9999  3.79277E-02  1.76332E+01 -1.00000E+00  1.71012E-01
      21    -1     0     0   502   511  0.000000000E+00  0.000000000E+00  2.642732016E+02  2.642732016E+02  0.000000000E+00  0.00000E+00  9.000E+00
      21    -1     0     0   501   502  0.000000000E+00  0.000000000E+00 -5.454574991E+02  5.454574991E+02  0.000000000E+00  0.00000E+00  9.000E+00
      25     1     1     2     0     0 -3.588782433E+01  1.991635311E+02 -4.991351683E+01  2.430440438E+02  1.250000000E+02  0.00000E+00  9.000E+00
      25     1     1     2     0     0  1.831321120E+01 -1.977278714E+02 -3.638459056E+02  4.329440239E+02  1.250000000E+02  0.00000E+00  9.000E+00
      21     1     1     2   501   511  1.757461312E+01 -1.435659718E+00  1.325751249E+02  1.337426330E+02  3.303624740E-06  0.00000E+00  9.000E+00
#rwgt            1           1   3.5342065864342000E-002           5      322444           0
</event>
<event>
      5   9999  3.79277E-02  5.69323E+01 -1.00000E+00  1.35933E-01
      21    -1     0     0   502   501  0.000000000E+00  0.000000000E+00  7.105275890E+02  7.105275890E+02  0.000000000E+00  0.00000E+00  9.000E+00
      21    -1     0     0   501   512  0.000000000E+00  0.000000000E+00 -1.377180862E+02  1.377180862E+02  0.000000000E+00  0.00000E+00  9.000E+00
      25     1     1     2     0     0 -2.287792012E+02 -1.265485089E+02  4.193330326E+02  5.097250634E+02  1.250000000E+02  0.00000E+00  9.000E+00
      25     1     1     2     0     0  1.814067853E+02  9.497088982E+01  1.466647479E+02  2.811822184E+02  1.250000000E+02  0.00000E+00  9.000E+00
      21     1     1     2   502   512  4.737241587E+01  3.157761906E+01  6.811722274E+00  5.733839352E+01  3.475518164E-07  0.00000E+00  9.000E+00
#rwgt            1           1   3.0320968437743488E-002           5      322677           0
</event>
<event>
      5   9999  3.79277E-02  1.70685E+01 -1.00000E+00  1.72256E-01
      21    -1     0     0   502   511  0.000000000E+00  0.000000000E+00  2.754329039E+02  2.754329039E+02  0.000000000E+00  0.00000E+00  9.000E+00
      21    -1     0     0   501   502  0.000000000E+00  0.000000000E+00 -3.795513853E+02  3.795513853E+02  0.000000000E+00  0.00000E+00  9.000E+00
      25     1     1     2     0     0  1.596536522E+02 -1.306858732E+02  3.885788822E+01  2.443420177E+02  1.250000000E+02  0.00000E+00  9.000E+00
      25     1     1     2     0     0 -1.430973417E+02  1.348359288E+02 -2.267708663E+02  3.251270562E+02  1.250000000E+02  0.00000E+00  9.000E+00
      21     1     1     2   501   511 -1.655631053E+01 -4.150055589E+00  8.379449666E+01  8.551521531E+01  1.348699152E-06  0.00000E+00  9.000E+00
#rwgt            1           1   3.7075105786804390E-002           5      322903           0
</event>
<event>
      5   9999  3.79277E-02  8.47902E+00 -1.00000E+00  2.04422E-01
       3    -1     0     0   502     0  0.000000000E+00  0.000000000E+00  2.758960957E+02  2.758960957E+02  0.000000000E+00  0.00000E+00  9.000E+00
      21    -1     0     0   501   502  0.000000000E+00  0.000000000E+00 -3.804873411E+02  3.804873411E+02  0.000000000E+00  0.00000E+00  9.000E+00
      25     1     1     2     0     0 -1.115914019E+02 -6.683732670E+01 -2.526519165E+01  1.821625624E+02  1.250000000E+02  0.00000E+00  9.000E+00
      25     1     1     2     0     0  1.148791901E+02  7.465296668E+01 -2.455852055E+02  3.077456530E+02  1.250000000E+02  0.00000E+00  9.000E+00
       3     1     1     2   501     0 -3.287788153E+00 -7.815639978E+00  1.662591519E+02  1.664752214E+02  1.907348633E-06  0.00000E+00  9.000E+00
#rwgt            1           1  0.11309014613786782                5      323178           0
</event>
<event>
      5   9999  3.79277E-02  9.74862E+01 -1.00000E+00  1.24327E-01
      21    -1     0     0   511   501  0.000000000E+00  0.000000000E+00  5.421758484E+02  5.421758484E+02  0.000000000E+00  0.00000E+00  9.000E+00
      21    -1     0     0   501   502  0.000000000E+00  0.000000000E+00 -1.659870937E+02  1.659870937E+02  0.000000000E+00  0.00000E+00  9.000E+00
      25     1     1     2     0     0 -9.667933986E+01  1.783509053E+02  2.943805301E+02  3.787358402E+02  1.250000000E+02  0.00000E+00  9.000E+00
      25     1     1     2     0     0  8.494424394E+01 -8.157364769E+01 -3.706263059E+01  1.756941182E+02  1.250000000E+02  0.00000E+00  9.000E+00
      21     1     1     2   511   502  1.173509592E+01 -9.677725762E+01  1.188708552E+02  1.537329837E+02  0.000000000E+00  0.00000E+00  9.000E+00
#rwgt            1           1   6.3933669404959301E-002           5      323437           0
</event>
<event>
      5   9999  3.79277E-02  4.36083E+01 -1.00000E+00  1.42552E-01
      21    -1     0     0   502   512  0.000000000E+00  0.000000000E+00  1.879478938E+03  1.879478938E+03  0.000000000E+00  0.00000E+00  9.000E+00
      21    -1     0     0   501   502  0.000000000E+00  0.000000000E+00 -2.440923399E+01  2.440923399E+01  0.000000000E+00  0.00000E+00  9.000E+00
      25     1     1     2     0     0 -1.168177484E+02 -3.495513008E+01  5.970183680E+02  6.220322975E+02  1.250000000E+02  0.00000E+00  9.000E+00
      25     1     1     2     0     0  1.574195774E+02  1.904351464E+01  1.060216166E+03  1.079271466E+03  1.250000000E+02  0.00000E+00  9.000E+00
      21     1     1     2   501   512 -4.060182905E+01  1.591161545E+01  1.978351703E+02  2.025844087E+02  2.697398305E-06  0.00000E+00  9.000E+00
#rwgt            1           1   3.1083725591453840E-002           5      323524           0
</event>
<event>
      5   9999  3.79277E-02  1.14468E+01 -1.00000E+00  1.89209E-01
      21    -1     0     0   502   511  0.000000000E+00  0.000000000E+00  6.707359565E+01  6.707359565E+01  0.000000000E+00  0.00000E+00  9.000E+00
      21    -1     0     0   501   502  0.000000000E+00  0.000000000E+00 -4.855527051E+02  4.855527051E+02  0.000000000E+00  0.00000E+00  9.000E+00
      25     1     1     2     0     0  2.476477267E+01 -1.174236275E+01 -6.862439850E+01  1.452084196E+02  1.250000000E+02  0.00000E+00  9.000E+00
      25     1     1     2     0     0 -3.042454957E+01  2.169209591E+01 -3.654687008E+02  3.880574332E+02  1.250000000E+02  0.00000E+00  9.000E+00
      21     1     1     2   501   511  5.659776899E+00 -9.949733163E+00  1.561398984E+01  1.936044791E+01  5.331201500E-07  0.00000E+00  9.000E+00
#rwgt            1           1   4.7614804400320940E-002           5      323704           0
</event>
<event>
      5   9999  3.79277E-02  1.85661E+01 -1.00000E+00  1.69080E-01
      21    -1     0     0   502   501  0.000000000E+00  0.000000000E+00  1.255266634E+03  1.255266634E+03  0.000000000E+00  0.00000E+00  9.000E+00
      -5    -1     0     0     0   502  0.000000000E+00  0.000000000E+00 -8.696287196E+02  8.696287196E+02  0.000000000E+00  0.00000E+00  9.000E+00
      25     1     1     2     0     0  1.772604907E+02 -8.486874269E+01  4.992389273E+02  5.508978958E+02  1.250000000E+02  0.00000E+00  9.000E+00
      25     1     1     2     0     0 -1.956035845E+02  8.773786466E+01  7.090058706E+02  7.511810832E+02  1.250000000E+02  0.00000E+00  9.000E+00
      -5     1     1     2     0   501  1.834309373E+01 -2.869121973E+00 -8.226068837E+02  8.228163745E+02  1.078959322E-05  0.00000E+00  9.000E+00
#rwgt            1           1   4.6269401163018878E-002           5      323948           0
</event>
<event>
      5   9999  3.79277E-02  2.74628E+01 -1.00000E+00  1.55754E-01
      21    -1     0     0   511   501  0.000000000E+00  0.000000000E+00  5.569292457E+01  5.569292457E+01  0.000000000E+00  0.00000E+00  9.000E+00
      21    -1     0     0   501   502  0.000000000E+00  0.000000000E+00 -1.396350863E+03  1.396350863E+03  0.000000000E+00  0.00000E+00  9.000E+00
      25     1     1     2     0     0 -5.026597195E+01  1.452599627E+02 -1.806867190E+02  2.681414088E+02  1.250000000E+02  0.00000E+00  9.000E+00
      25     1     1     2     0     0  7.035348079E+01 -1.265330109E+02 -1.114401228E+03  1.130696826E+03  1.250000000E+02  0.00000E+00  9.000E+00
      21     1     1     2   511   502 -2.008750885E+01 -1.872695185E+01 -4.556999166E+01  5.320555307E+01  9.536743164E-07  0.00000E+00  9.000E+00
#rwgt            1           1   4.7497071139801846E-002           5      324107           0
</event>
<event>
      5   9999  3.79277E-02  1.09637E+01 -1.00000E+00  1.91249E-01
      21    -1     0     0   502   512  0.000000000E+00  0.000000000E+00  2.252363753E+02  2.252363753E+02  0.000000000E+00  0.00000E+00  9.000E+00
      21    -1     0     0   501   502  0.000000000E+00  0.000000000E+00 -1.914546990E+02  1.914546990E+02  0.000000000E+00  0.00000E+00  9.000E+00
      25     1     1     2     0     0  1.311914441E+02  2.226427612E+01  5.163289196E+01  1.897309899E+02  1.250000000E+02  0.00000E+00  9.000E+00
      25     1     1     2     0     0 -1.388275170E+02 -3.013156307E+01 -4.771452441E+01  1.951478066E+02  1.250000000E+02  0.00000E+00  9.000E+00
      21     1     1     2   501   512  7.636072936E+00  7.867286954E+00  2.986330872E+01  3.181227785E+01  4.768371582E-07  0.00000E+00  9.000E+00
#rwgt            1           1   3.6035482548761960E-002           5      324309           0
</event>
<event>
      5   9999  3.79277E-02  3.78624E+01 -1.00000E+00  1.46335E-01
      21    -1     0     0   511   501  0.000000000E+00  0.000000000E+00  1.990561897E+02  1.990561897E+02  0.000000000E+00  0.00000E+00  9.000E+00
      21    -1     0     0   501   502  0.000000000E+00  0.000000000E+00 -4.378844160E+02  4.378844160E+02  0.000000000E+00  0.00000E+00  9.000E+00
      25     1     1     2     0     0 -3.441472865E+01 -1.505130882E+02 -1.599463437E+02  2.550419498E+02  1.250000000E+02  0.00000E+00  9.000E+00
      25     1     1     2     0     0  7.099160222E+01  1.407307516E+02 -1.824763717E+02  2.716018746E+02  1.250000000E+02  0.00000E+00  9.000E+00
      21     1     1     2   511   502 -3.657687357E+01  9.782336630E+00  1.035944891E+02  1.102967813E+02  1.907348633E-06  0.00000E+00  9.000E+00
#rwgt            1           1   4.3356724870874871E-002           5      324582           0
</event>
<event>
      5   9999  3.79277E-02  1.23416E+02 -1.00000E+00  1.19853E-01
       1    -1     0     0   502     0  0.000000000E+00  0.000000000E+00  4.300485550E+02  4.300485550E+02  0.000000000E+00  0.00000E+00  9.000E+00
      21    -1     0     0   501   502  0.000000000E+00  0.000000000E+00 -2.195521606E+02  2.195521606E+02  0.000000000E+00  0.00000E+00  9.000E+00
      25     1     1     2     0     0 -1.553270982E+02  1.180169351E+01  1.738384380E+02  2.647840440E+02  1.250000000E+02  0.00000E+00  9.000E+00
      25     1     1     2     0     0  3.787987565E+01  2.611337381E+01 -1.241658056E+02  1.820959652E+02  1.250000000E+02  0.00000E+00  9.000E+00
       1     1     1     2   501     0  1.174472226E+02 -3.791506732E+01  1.608237620E+02  2.027207065E+02  1.907348633E-06  0.00000E+00  9.000E+00
#rwgt            1           1   4.2915881145476772E-002           5      324653           0
</event>
<event>
      5   9999  3.79277E-02  2.28720E+01 -1.00000E+00  1.61700E-01
       2    -1     0     0   502     0  0.000000000E+00  0.000000000E+00  2.388731606E+03  2.388731606E+03  0.000000000E+00  0.00000E+00  9.000E+00
      21    -1     0     0   501   502  0.000000000E+00  0.000000000E+00 -3.591909542E+02  3.591909542E+02  0.000000000E+00  0.00000E+00  9.000E+00
      25     1     1     2     0     0  3.249772649E+01 -1.148140496E+02 -1.578449924E+02  2.340478794E+02  1.250000000E+02  0.00000E+00  9.000E+00
      25     1     1     2     0     0 -1.687651379E+01  1.315205357E+02 -1.123145177E+02  2.140607832E+02  1.250000000E+02  0.00000E+00  9.000E+00
       2     1     1     2   501     0 -1.562121271E+01 -1.670648612E+01  2.299700162E+03  2.299813898E+03  0.000000000E+00  0.00000E+00  9.000E+00
#rwgt            1           1   3.4089758417187851E-002           5      324782           0
</event>
<event>
      5   9999  3.79277E-02  1.67809E+01 -1.00000E+00  1.72913E-01
      21    -1     0     0   502   501  0.000000000E+00  0.000000000E+00  2.321508748E+02  2.321508748E+02  0.000000000E+00  0.00000E+00  9.000E+00
       1    -1     0     0   501     0  0.000000000E+00  0.000000000E+00 -1.415653415E+03  1.415653415E+03  0.000000000E+00  0.00000E+00  9.000E+00
      25     1     1     2     0     0 -6.696592814E+01  2.721270745E+01 -2.369262977E+02  2.774599746E+02  1.250000000E+02  0.00000E+00  9.000E+00
      25     1     1     2     0     0  5.084507735E+01 -3.187297456E+01  1.891307076E+02  2.345133961E+02  1.250000000E+02  0.00000E+00  9.000E+00
       1     1     1     2   502     0  1.612085079E+01  4.660267110E+00 -1.135706950E+03  1.135830919E+03  1.525878906E-05  0.00000E+00  9.000E+00
#rwgt            1           1   2.9828762147117049E-002           5      324936           0
</event>
<event>
      5   9999  3.79277E-02  7.12092E+01 -1.00000E+00  1.30845E-01
      21    -1     0     0   502   501  0.000000000E+00  0.000000000E+00  1.981096521E+02  1.981096521E+02  0.000000000E+00  0.00000E+00  9.000E+00
      21    -1     0     0   511   502  0.000000000E+00  0.000000000E+00 -4.019564470E+02  4.019564470E+02  0.000000000E+00  0.00000E+00  9.000E+00
      25     1     1     2     0     0 -6.054421717E+01  1.309757151E+02 -1.951428041E+02  2.729944215E+02  1.250000000E+02  0.00000E+00  9.000E+00
      25     1     1     2     0     0  1.252647815E+02 -1.606742218E+02  3.783980089E+01  2.420006644E+02  1.250000000E+02  0.00000E+00  9.000E+00
      21     1     1     2   511   501 -6.472056430E+01  2.969850675E+01 -4.654379169E+01  8.507101323E+01  1.168007728E-06  0.00000E+00  9.000E+00
#rwgt            1           1   4.1989490200308469E-002           5      325215           0
</event>
<event>
      5   9999  3.79277E-02  2.32947E+01 -1.00000E+00  1.61084E-01
      21    -1     0     0   512   501  0.000000000E+00  0.000000000E+00  3.203607948E+01  3.203607948E+01  0.000000000E+00  0.00000E+00  9.000E+00
      21    -1     0     0   501   502  0.000000000E+00  0.000000000E+00 -1.567453834E+03  1.567453834E+03  0.000000000E+00  0.00000E+00  9.000E+00
      25     1     1     2     0     0  1.128344433E+02  6.698788302E+01 -1.068278526E+03  1.083541876E+03  1.250000000E+02  0.00000E+00  9.000E+00
      25     1     1     2     0     0 -1.355087685E+02 -6.164759060E+01 -3.969165338E+02  4.419624266E+02  1.250000000E+02  0.00000E+00  9.000E+00
      21     1     1     2   512   502  2.267432520E+01 -5.340292422E+00 -7.022269454E+01  7.398561059E+01  9.536743164E-07  0.00000E+00  9.000E+00
#rwgt            1           1   4.0794037024288972E-002           5      325311           0
</event>
<event>
      5   9999  3.79277E-02  5.35460E+01 -1.00000E+00  1.37399E-01
      21    -1     0     0   502   501  0.000000000E+00  0.000000000E+00  5.564500086E+02  5.564500086E+02  0.000000000E+00  0.00000E+00  9.000E+00
      21    -1     0     0   511   502  0.000000000E+00  0.000000000E+00 -5.219024744E+02  5.219024744E+02  0.000000000E+00  0.00000E+00  9.000E+00
      25     1     1     2     0     0  1.014455736E+02  1.411516460E+01  2.415457380E+01  1.633979367E+02  1.250000000E+02  0.00000E+00  9.000E+00
      25     1     1     2     0     0 -1.443974328E+02  1.785843471E+01  4.410627938E+02  4.809687416E+02  1.250000000E+02  0.00000E+00  9.000E+00
      21     1     1     2   511   501  4.295185923E+01 -3.197359931E+01 -4.306698334E+02  4.339858047E+02  5.394796609E-06  0.00000E+00  9.000E+00
#rwgt            1           1   4.3397856079208007E-002           5      325564           0
</event>
<event>
      5   9999  3.79277E-02  1.68171E+01 -1.00000E+00  1.72829E-01
      21    -1     0     0   502   501  0.000000000E+00  0.000000000E+00  3.117529972E+02  3.117529972E+02  0.000000000E+00  0.00000E+00  9.000E+00
      21    -1     0     0   512   502  0.000000000E+00  0.000000000E+00 -1.965495318E+02  1.965495318E+02  0.000000000E+00  0.00000E+00  9.000E+00
      25     1     1     2     0     0  5.082169892E+01  4.972934109E+01  2.489855832E+02  2.875320384E+02  1.250000000E+02  0.00000E+00  9.000E+00
      25     1     1     2     0     0 -6.763375034E+01 -5.014321426E+01 -9.410838415E+01  1.776796389E+02  1.250000000E+02  0.00000E+00  9.000E+00
      21     1     1     2   512   501  1.681205142E+01  4.138731741E-01 -3.967373360E+01  4.309085172E+01  4.768371582E-07  0.00000E+00  9.000E+00
#rwgt            1           1   3.3525160346787153E-002           5      325621           0
</event>
<event>
      5   9999  3.79277E-02  4.79830E+01 -1.00000E+00  1.40104E-01
      21    -1     0     0   502   501  0.000000000E+00  0.000000000E+00  1.984550805E+02  1.984550805E+02  0.000000000E+00  0.00000E+00  9.000E+00
      21    -1     0     0   511   502  0.000000000E+00  0.000000000E+00 -9.769538963E+02  9.769538963E+02  0.000000000E+00  0.00000E+00  9.000E+00
      25     1     1     2     0     0 -1.630638729E+02  7.171221471E+01 -2.723393097E+01  2.193151965E+02  1.250000000E+02  0.00000E+00  9.000E+00
      25     1     1     2     0     0  2.036561037E+02 -9.729808921E+01 -6.225059663E+01  2.654107449E+02  1.250000000E+02  0.00000E+00  9.000E+00
      21     1     1     2   511   501 -4.059223071E+01  2.558587450E+01 -6.890142882E+02  6.906830355E+02  7.629394531E-06  0.00000E+00  9.000E+00
#rwgt            1           1   3.2028159686070014E-002           5      325902           0
</event>
<event>
      5   9999  3.79277E-02  3.29984E+01 -1.00000E+00  1.50221E-01
      21    -1     0     0   512   501  0.000000000E+00  0.000000000E+00  1.308627621E+02  1.308627621E+02  0.000000000E+00  0.00000E+00  9.000E+00
      21    -1     0     0   501   502  0.000000000E+00  0.000000000E+00 -6.830920295E+02  6.830920295E+02  0.000000000E+00  0.00000E+00  9.000E+00
      25     1     1     2     0     0  1.516106409E+02  7.635969974E+01 -3.968211780E+02  4.493424501E+02  1.250000000E+02  0.00000E+00  9.000E+00
      25     1     1     2     0     0 -1.788283806E+02 -5.770263431E+01 -2.051016936E+02  3.049604703E+02  1.250000000E+02  0.00000E+00  9.000E+00
      21     1     1     2   512   502  2.721773970E+01 -1.865706543E+01  4.969360420E+01  5.965187125E+01  9.536743164E-07  0.00000E+00  9.000E+00
#rwgt            1           1   3.3783591798446887E-002           5      326108           0
</event>
<event>
      5   9999  3.79277E-02  6.60959E+01 -1.00000E+00  1.32495E-01
      21    -1     0     0   502   511  0.000000000E+00  0.000000000E+00  3.104637459E+02  3.104637459E+02  0.000000000E+00  0.00000E+00  9.000E+00
      21    -1     0     0   501   502  0.000000000E+00  0.000000000E+00 -7.030696813E+02  7.030696813E+02  0.000000000E+00  0.00000E+00  9.000E+00
      25     1     1     2     0     0 -3.157974814E+02 -4.654192280E+01  1.162159584E+02  3.619742378E+02  1.250000000E+02  0.00000E+00  9.000E+00
      25     1     1     2     0     0  2.498026897E+02  5.019703912E+01 -5.119886016E+02  5.853874398E+02  1.250000000E+02  0.00000E+00  9.000E+00
      21     1     1     2   501   511  6.599479169E+01 -3.655116316E+00  3.166707777E+00  6.617174959E+01  8.637533633E-07  0.00000E+00  9.000E+00
#rwgt            1           1   3.8635874298938860E-002           5      326289           0
</event>
<event>
      5   9999  3.79277E-02  1.42686E+02 -1.00000E+00  1.17261E-01
      21    -1     0     0   502   512  0.000000000E+00  0.000000000E+00  2.480251410E+02  2.480251410E+02  0.000000000E+00  0.00000E+00  9.000E+00
      21    -1     0     0   501   502  0.000000000E+00  0.000000000E+00 -6.308343473E+02  6.308343473E+02  0.000000000E+00  0.00000E+00  9.000E+00
      25     1     1     2     0     0  1.604099779E+02  1.325608579E+02  7.871578347E+01  2.551958397E+02  1.250000000E+02  0.00000E+00  9.000E+00
      25     1     1     2     0     0 -1.343592250E+02  7.727255954E+00 -4.432652104E+02  4.798136707E+02  1.250000000E+02  0.00000E+00  9.000E+00
      21     1     1     2   501   512 -2.605075286E+01 -1.402881138E+02 -1.825977941E+01  1.438499779E+02  1.238859277E-06  0.00000E+00  9.000E+00
#rwgt            2          11   2.9713635947060352E-003           5      326403           0
</event>
<event>
      5   9999  3.79277E-02  6.49313E+01 -1.00000E+00  1.32896E-01
       2    -1     0     0   502     0  0.000000000E+00  0.000000000E+00  1.546447986E+03  1.546447986E+03  0.000000000E+00  0.00000E+00  9.000E+00
      21    -1     0     0   501   502  0.000000000E+00  0.000000000E+00 -1.330414111E+02  1.330414111E+02  0.000000000E+00  0.00000E+00  9.000E+00
      25     1     1     2     0     0  8.705113828E+01  1.337286504E+02  6.851242740E+01  2.139630934E+02  1.250000000E+02  0.00000E+00  9.000E+00
      25     1     1     2     0     0 -1.224309857E+02 -7.928286475E+01  9.564016290E+01  2.145860192E+02  1.250000000E+02  0.00000E+00  9.000E+00
       2     1     1     2   501     0  3.537984738E+01 -5.444578566E+01  1.249253985E+03  1.250940285E+03  2.642899792E-05  0.00000E+00  9.000E+00
#rwgt            1           1   3.7940522775125982E-002           5      326453           0
</event>
<event>
      5   9999  3.79277E-02  1.39740E+02 -1.00000E+00  1.17626E-01
      21    -1     0     0   511   501  0.000000000E+00  0.000000000E+00  1.255847405E+02  1.255847405E+02  0.000000000E+00  0.00000E+00  9.000E+00
      21    -1     0     0   501   502  0.000000000E+00  0.000000000E+00 -1.248131377E+03  1.248131377E+03  0.000000000E+00  0.00000E+00  9.000E+00
      25     1     1     2     0     0  7.740903066E+01 -9.947522981E+01 -9.845845901E+02  1.000459542E+03  1.250000000E+02  0.00000E+00  9.000E+00
      25     1     1     2     0     0 -1.487659906E+02 -2.067289797E+01 -1.270770907E+02  2.330928477E+02  1.250000000E+02  0.00000E+00  9.000E+00
      21     1     1     2   511   502  7.135695997E+01  1.201481278E+02 -1.088495534E+01  1.401637278E+02  1.715123006E-06  0.00000E+00  9.000E+00
#rwgt            1           1   4.7002602750589761E-002           5      326513           0
</event>
<event>
      5   9999  3.79277E-02  9.75251E+00 -1.00000E+00  1.97024E-01
      21    -1     0     0   502   501  0.000000000E+00  0.000000000E+00  5.406692795E+02  5.406692795E+02  0.000000000E+00  0.00000E+00  9.000E+00
      21    -1     0     0   512   502  0.000000000E+00  0.000000000E+00 -1.478524729E+02  1.478524729E+02  0.000000000E+00  0.00000E+00  9.000E+00
      25     1     1     2     0     0  7.669922663E+01 -3.764394054E+01  1.122208936E+02  1.884631703E+02  1.250000000E+02  0.00000E+00  9.000E+00
      25     1     1     2     0     0 -7.587406045E+01  2.792640483E+01  3.758749360E+02  4.042817392E+02  1.250000000E+02  0.00000E+00  9.000E+00
      21     1     1     2   512   501 -8.251661777E-01  9.717535711E+00 -9.527902303E+01  9.577684287E+01  0.000000000E+00  0.00000E+00  9.000E+00
#rwgt            1           1   5.1805455777744480E-002           5      326571           0
</event>
<event>
      5   9999  3.79277E-02  2.41934E+01 -1.00000E+00  1.59825E-01
      21    -1     0     0   502   501  0.000000000E+00  0.000000000E+00  2.180163463E+02  2.180163463E+02  0.000000000E+00  0.00000E+00  9.000E+00
      21    -1     0     0   501   511  0.000000000E+00  0.000000000E+00 -1.799834182E+02  1.799834182E+02  0.000000000E+00  0.00000E+00  9.000E+00
      25     1     1     2     0     0  1.149321649E+02 -8.454789104E+00 -3.227323817E+01  1.730533094E+02  1.250000000E+02  0.00000E+00  9.000E+00
      25     1     1     2     0     0 -1.195288025E+02 -1.529794652E+01  8.830515514E+01  1.947921000E+02  1.250000000E+02  0.00000E+00  9.000E+00
      21     1     1     2   502   511  4.596637608E+00  2.375273562E+01 -1.799898884E+01  3.015435501E+01  6.743495762E-07  0.00000E+00  9.000E+00
#rwgt            1           1   4.0768150393512337E-002           5      326960           0
</event>
<event>
      5   9999  3.79277E-02  4.22657E+01 -1.00000E+00  1.43372E-01
      21    -1     0     0   502   501  0.000000000E+00  0.000000000E+00  1.166870083E+03  1.166870083E+03  0.000000000E+00  0.00000E+00  9.000E+00
      21    -1     0     0   501   512  0.000000000E+00  0.000000000E+00 -3.115319429E+02  3.115319429E+02  0.000000000E+00  0.00000E+00  9.000E+00
      25     1     1     2     0     0 -4.153142649E+02 -2.194251337E+02  6.077897419E+01  4.898493765E+02  1.250000000E+02  0.00000E+00  9.000E+00
      25     1     1     2     0     0  4.575496006E+02  2.210256300E+02  7.877883702E+02  9.457481072E+02  1.250000000E+02  0.00000E+00  9.000E+00
      21     1     1     2   502   512 -4.223533575E+01 -1.600496231E+00  6.770796000E+00  4.280454243E+01  4.539354507E-07  0.00000E+00  9.000E+00
#rwgt            1           1  0.34811118886840042                5      327219           0
</event>
<event>
      5   9999  3.79277E-02  1.57273E+01 -1.00000E+00  1.75468E-01
      21    -1     0     0   511   501  0.000000000E+00  0.000000000E+00  1.737907467E+02  1.737907467E+02  0.000000000E+00  0.00000E+00  9.000E+00
      21    -1     0     0   501   502  0.000000000E+00  0.000000000E+00 -2.043679931E+02  2.043679931E+02  0.000000000E+00  0.00000E+00  9.000E+00
      25     1     1     2     0     0 -4.917184476E+01 -1.078372143E+02 -6.908397257E+01  1.855918381E+02  1.250000000E+02  0.00000E+00  9.000E+00
      25     1     1     2     0     0  3.466330127E+01  1.139077530E+02  3.212861993E+01  1.755954694E+02  1.250000000E+02  0.00000E+00  9.000E+00
      21     1     1     2   511   502  1.450854350E+01 -6.070538715E+00  6.378106284E+00  1.697143230E+01  3.862822472E-07  0.00000E+00  9.000E+00
#rwgt            2          11   6.2562447294914674E-003           5      327423           0
</event>
<event>
      5   9999  3.79277E-02  6.73734E+01 -1.00000E+00  1.32067E-01
       1    -1     0     0   502     0  0.000000000E+00  0.000000000E+00  2.223478687E+03  2.223478687E+03  0.000000000E+00  0.00000E+00  9.000E+00
      21    -1     0     0   501   502  0.000000000E+00  0.000000000E+00 -2.692160872E+01  2.692160872E+01  0.000000000E+00  0.00000E+00  9.000E+00
      25     1     1     2     0     0 -1.748468483E+01  8.828023087E+01  1.126593022E+03  1.137073415E+03  1.250000000E+02  0.00000E+00  9.000E+00
      25     1     1     2     0     0  1.296445679E+01 -1.555017906E+02  4.864307185E+02  5.259170352E+02  1.250000000E+02  0.00000E+00  9.000E+00
       1     1     1     2   501     0  4.520228044E+00  6.722155975E+01  5.835333375E+02  5.874098455E+02  7.629394531E-06  0.00000E+00  9.000E+00
#rwgt            1           1   4.3457857880442458E-002           5      327443           0
</event>
<event>
      5   9999  3.79277E-02  1.41558E+02 -1.00000E+00  1.17399E-01
      21    -1     0     0   502   511  0.000000000E+00  0.000000000E+00  3.142354028E+03  3.142354028E+03  0.000000000E+00  0.00000E+00  9.000E+00
      21    -1     0     0   501   502  0.000000000E+00  0.000000000E+00 -2.622206437E+02  2.622206437E+02  0.000000000E+00  0.00000E+00  9.000E+00
      25     1     1     2     0     0 -3.697848233E+02 -7.063080156E+02  7.846197691E+02  1.125550981E+03  1.250000000E+02  0.00000E+00  9.000E+00
      25     1     1     2     0     0  2.282285509E+02  7.070778285E+02  1.801367773E+03  1.952587561E+03  1.250000000E+02  0.00000E+00  9.000E+00
      21     1     1     2   501   511  1.415562724E+02 -7.698128426E-01  2.941458414E+02  3.264361299E+02  0.000000000E+00  0.00000E+00  9.000E+00
#rwgt            2          11   2.0784813932533583E-003           5      327527           0
</event>
<event>
      5   9999  3.79277E-02  9.77623E+01 -1.00000E+00  1.24272E-01
      21    -1     0     0   502   501  0.000000000E+00  0.000000000E+00  1.883031144E+02  1.883031144E+02  0.000000000E+00  0.00000E+00  9.000E+00
      21    -1     0     0   512   502  0.000000000E+00  0.000000000E+00 -5.823407969E+02  5.823407969E+02  0.000000000E+00  0.00000E+00  9.000E+00
      25     1     1     2     0     0 -1.648070455E+01  2.433923737E+02  5.531133755E+00  2.741661077E+02  1.250000000E+02  0.00000E+00  9.000E+00
      25     1     1     2     0     0  1.401266255E+01 -1.456612190E+02 -3.037614505E+02  3.595963907E+02  1.250000000E+02  0.00000E+00  9.000E+00
      21     1     1     2   512   501  2.468042002E+00 -9.773115475E+01 -9.580736584E+01  1.368814129E+02  1.348699152E-06  0.00000E+00  9.000E+00
#rwgt            1           1   3.2920515797267791E-002           5      327592           0
</event>
<event>
      5   9999  3.79277E-02  1.05582E+02 -1.00000E+00  1.22776E-01
      21    -1     0     0   511   501  0.000000000E+00  0.000000000E+00  9.257016860E+01  9.257016860E+01  0.000000000E+00  0.00000E+00  9.000E+00
      21    -1     0     0   501   502  0.000000000E+00  0.000000000E+00 -1.271091469E+03  1.271091469E+03  0.000000000E+00  0.00000E+00  9.000E+00
      25     1     1     2     0     0 -5.867357755E+01 -1.740560930E+02 -4.051352567E+02  4.620581007E+02  1.250000000E+02  0.00000E+00  9.000E+00
      25     1     1     2     0     0  1.328685479E+02  9.893863972E+01 -7.683704109E+02  7.959026283E+02  1.250000000E+02  0.00000E+00  9.000E+00
      21     1     1     2   511   502 -7.419497039E+01  7.511745326E+01 -5.015632395E+00  1.057009081E+02  2.105655877E-06  0.00000E+00  9.000E+00
#rwgt            1           1   3.7657173226946540E-002           5      327705           0
</event>
<event>
      5   9999  3.79277E-02  4.25984E+01 -1.00000E+00  1.43165E-01
      21    -1     0     0   502   501  0.000000000E+00  0.000000000E+00  1.448297713E+02  1.448297713E+02  0.000000000E+00  0.00000E+00  9.000E+00
      21    -1     0     0   512   502  0.000000000E+00  0.000000000E+00 -3.837597066E+02  3.837597066E+02  0.000000000E+00  0.00000E+00  9.000E+00
      25     1     1     2     0     0 -1.593535220E+02  4.113642243E+01 -1.953397048E+02  2.843736108E+02  1.250000000E+02  0.00000E+00  9.000E+00
      25     1     1     2     0     0  1.169340365E+02 -4.503638289E+01  8.167678384E+00  1.771822667E+02  1.250000000E+02  0.00000E+00  9.000E+00
      21     1     1     2   512   501  4.241948553E+01  3.899960462E+00 -5.175790888E+01  6.703360035E+01  1.168007728E-06  0.00000E+00  9.000E+00
#rwgt            1           1   4.0996972762571804E-002           5      327806           0
</event>
<event>
      5   9999  3.79277E-02  4.95365E+01 -1.00000E+00  1.39307E-01
      21    -1     0     0   502   501  0.000000000E+00  0.000000000E+00  8.565265014E+02  8.565265014E+02  0.000000000E+00  0.00000E+00  9.000E+00
      21    -1     0     0   501   511  0.000000000E+00  0.000000000E+00 -1.633126418E+02  1.633126418E+02  0.000000000E+00  0.00000E+00  9.000E+00
      25     1     1     2     0     0  8.104491856E+01 -1.478857764E+02  7.497341240E+02  7.785658214E+02  1.250000000E+02  0.00000E+00  9.000E+00
      25     1     1     2     0     0 -7.756847856E+01  9.847140684E+01 -1.688193007E+01  1.778299367E+02  1.250000000E+02  0.00000E+00  9.000E+00
      21     1     1     2   502   511 -3.476440006E+00  4.941436957E+01 -3.963833428E+01  6.344338500E+01  4.768371582E-07  0.00000E+00  9.000E+00
#rwgt            1           1   3.3029093412979903E-002           5      327924           0
</event>
<event>
      5   9999  3.79277E-02  9.49984E+00 -1.00000E+00  1.98369E-01
      21    -1     0     0   502   501  0.000000000E+00  0.000000000E+00  5.246442754E+02  5.246442754E+02  0.000000000E+00  0.00000E+00  9.000E+00
      21    -1     0     0   501   512  0.000000000E+00  0.000000000E+00 -3.260416172E+02  3.260416172E+02  0.000000000E+00  0.00000E+00  9.000E+00
      25     1     1     2     0     0 -1.166424090E+02  2.199662159E+02 -7.747341072E+01  2.891672822E+02  1.250000000E+02  0.00000E+00  9.000E+00
      25     1     1     2     0     0  1.180180774E+02 -2.105665124E+02  3.744350188E+02  4.627019624E+02  1.250000000E+02  0.00000E+00  9.000E+00
      21     1     1     2   502   512 -1.375668390E+00 -9.399703549E+00 -9.835894990E+01  9.881664797E+01  1.348699152E-06  0.00000E+00  9.000E+00
#rwgt            1           1   4.2050840341712012E-002           5      328135           0
</event>
<event>
      5   9999  3.79277E-02  5.36207E+01 -1.00000E+00  1.37365E-01
      21    -1     0     0   511   501  0.000000000E+00  0.000000000E+00  3.018878149E+02  3.018878149E+02  0.000000000E+00  0.00000E+00  9.000E+00
      21    -1     0     0   501   502  0.000000000E+00  0.000000000E+00 -3.085823238E+02  3.085823238E+02  0.000000000E+00  0.00000E+00  9.000E+00
      25     1     1     2     0     0  1.397651972E+02 -5.106801065E+01 -2.103346504E+02  2.863702450E+02  1.250000000E+02  0.00000E+00  9.000E+00
      25     1     1     2     0     0 -1.169989726E+02  9.961573236E+01  1.523099467E+02  2.498707138E+02  1.250000000E+02  0.00000E+00  9.000E+00
      21     1     1     2   511   502 -2.276622463E+01 -4.854772171E+01  5.133019467E+01  7.422917992E+01  1.348699152E-06  0.00000E+00  9.000E+00
#rwgt            1           1   3.4404315438581384E-002           5      328432           0
</event>
<event>
      5   9999  3.79277E-02  1.37862E+01 -1.00000E+00  1.80907E-01
      21    -1     0     0   502   501  0.000000000E+00  0.000000000E+00  2.620634234E+02  2.620634234E+02  0.000000000E+00  0.00000E+00  9.000E+00
      21    -1     0     0   512   502  0.000000000E+00  0.000000000E+00 -2.606085149E+02  2.606085149E+02  0.000000000E+00  0.00000E+00  9.000E+00
      25     1     1     2     0     0 -1.677027579E+02  9.361275951E+01 -3.298514146E+01  2.315179978E+02  1.250000000E+02  0.00000E+00  9.000E+00
      25     1     1     2     0     0  1.800194277E+02 -9.980613143E+01  7.183095163E+01  2.513024947E+02  1.250000000E+02  0.00000E+00  9.000E+00
      21     1     1     2   512   501 -1.231666983E+01  6.193371917E+00 -3.739090168E+01  3.985144590E+01  8.259061849E-07  0.00000E+00  9.000E+00
#rwgt            1           1   3.6803443072861076E-002           5      328549           0
</event>
<event>
      5   9999  3.79277E-02  1.54805E+02 -1.00000E+00  1.15854E-01
      21    -1     0     0   502   501  0.000000000E+00  0.000000000E+00  3.153364244E+02  3.153364244E+02  0.000000000E+00  0.00000E+00  9.000E+00
       1    -1     0     0   501     0  0.000000000E+00  0.000000000E+00 -6.395578166E+02  6.395578166E+02  0.000000000E+00  0.00000E+00  9.000E+00
      25     1     1     2     0     0 -2.580145411E+01  1.022080676E+02  1.352644178E+02  2.122113730E+02  1.250000000E+02  0.00000E+00  9.000E+00
      25     1     1     2     0     0  1.710037560E+02 -4.853549250E+01  3.894043543E+01  2.207698714E+02  1.250000000E+02  0.00000E+00  9.000E+00
       1     1     1     2   502     0 -1.452023019E+02 -5.367257514E+01 -4.984262455E+02  5.219129966E+02  5.394796609E-06  0.00000E+00  9.000E+00
#rwgt            1           1   4.1455666445778548E-002           5      328819           0
</event>
<event>
      5   9999  3.79277E-02  4.50164E+01 -1.00000E+00  1.41728E-01
      -1    -1     0     0     0   501  0.000000000E+00  0.000000000E+00  7.476793399E+02  7.476793399E+02  0.000000000E+00  0.00000E+00  9.000E+00
      21    -1     0     0   501   502  0.000000000E+00  0.000000000E+00 -8.169552255E+01  8.169552255E+01  0.000000000E+00  0.00000E+00  9.000E+00
      25     1     1     2     0     0  8.199157738E+01 -1.648224526E+02  2.636591300E+02  3.450075310E+02  1.250000000E+02  0.00000E+00  9.000E+00
      25     1     1     2     0     0 -1.039071517E+02  1.255009470E+02  2.397604896E+02  3.156854071E+02  1.250000000E+02  0.00000E+00  9.000E+00
      -1     1     1     2     0   502  2.191557434E+01  3.932150557E+01  1.625641978E+02  1.686819243E+02  3.814697266E-06  0.00000E+00  9.000E+00
#rwgt            1           1   3.6984591934398056E-002           5      329107           0
</event>
<event>
      5   9999  3.79277E-02  1.55635E+01 -1.00000E+00  1.75888E-01
      21    -1     0     0   502   501  0.000000000E+00  0.000000000E+00  9.441198414E+01  9.441198414E+01  0.000000000E+00  0.00000E+00  9.000E+00
      21    -1     0     0   511   502  0.000000000E+00  0.000000000E+00 -4.984527117E+02  4.984527117E+02  0.000000000E+00  0.00000E+00  9.000E+00
      25     1     1     2     0     0  3.275884695E+01 -7.572485975E+01 -3.339832845E+02  3.660290026E+02  1.250000000E+02  0.00000E+00  9.000E+00
      25     1     1     2     0     0 -1.740448507E+01  7.826744041E+01  6.563692202E+00  1.486498920E+02  1.250000000E+02  0.00000E+00  9.000E+00
      21     1     1     2   511   501 -1.535436188E+01 -2.542580656E+00 -7.662113527E+01  7.818580124E+01  9.536743164E-07  0.00000E+00  9.000E+00
#rwgt            1           1   3.8105028310719269E-002           5      329212           0
</event>
<event>
      5   9999  3.79277E-02  6.69951E+01 -1.00000E+00  1.32193E-01
      21    -1     0     0   502   501  0.000000000E+00  0.000000000E+00  1.975599455E+02  1.975599455E+02  0.000000000E+00  0.00000E+00  9.000E+00
      21    -1     0     0   512   502  0.000000000E+00  0.000000000E+00 -3.137492534E+02  3.137492534E+02  0.000000000E+00  0.00000E+00  9.000E+00
      25     1     1     2     0     0  9.328645523E+01  3.419961131E+01  1.178282391E+02  1.984451311E+02  1.250000000E+02  0.00000E+00  9.000E+00
      25     1     1     2     0     0 -4.001655426E+01  6.428676728E+00 -1.077914957E+02  1.699607574E+02  1.250000000E+02  0.00000E+00  9.000E+00
      21     1     1     2   512   501 -5.326990097E+01 -4.062828803E+01 -1.262260512E+02  1.429033105E+02  2.697398305E-06  0.00000E+00  9.000E+00
#rwgt            1           1   3.0323420306962921E-002           5      329485           0
</event>
<event>
      5   9999  3.79277E-02  2.56175E+01 -1.00000E+00  1.57961E-01
      21    -1     0     0   511   501  0.000000000E+00  0.000000000E+00  2.279530258E+02  2.279530258E+02  0.000000000E+00  0.00000E+00  9.000E+00
      21    -1     0     0   501   502  0.000000000E+00  0.000000000E+00 -2.246065963E+02  2.246065963E+02  0.000000000E+00  0.00000E+00  9.000E+00
      25     1     1     2     0     0 -2.838311152E+01  2.992772204E+01  4.183306871E+01  1.381168896E+02  1.250000000E+02  0.00000E+00  9.000E+00
      25     1     1     2     0     0  2.860848776E+01 -4.311190947E+00 -1.515183988E+02  1.985443454E+02  1.250000000E+02  0.00000E+00  9.000E+00
      21     1     1     2   511   502 -2.253762449E-01 -2.561653109E+01  1.130317595E+02  1.158983870E+02  1.348699152E-06  0.00000E+00  9.000E+00
#rwgt            1           1   4.9340578786467873E-002           5      329549           0
</event>
<event>
      5   9999  3.79277E-02  2.36372E+01 -1.00000E+00  1.60596E-01
      21    -1     0     0   502   501  0.000000000E+00  0.000000000E+00  5.070514168E+01  5.070514168E+01  0.000000000E+00  0.00000E+00  9.000E+00
      21    -1     0     0   501   512  0.000000000E+00  0.000000000E+00 -7.586597528E+02  7.586597528E+02  0.000000000E+00  0.00000E+00  9.000E+00
      25     1     1     2     0     0  7.013472824E+01  9.288407623E+01 -1.921181960E+02  2.570617299E+02  1.250000000E+02  0.00000E+00  9.000E+00
      25     1     1     2     0     0 -4.656999042E+01 -9.473295300E+01 -3.699383348E+02  4.045027416E+02  1.250000000E+02  0.00000E+00  9.000E+00
      21     1     1     2   502   512 -2.356473782E+01  1.848876768E+00 -1.458980803E+02  1.478004230E+02  1.907348633E-06  0.00000E+00  9.000E+00
#rwgt            1           1   5.3015962519603901E-002           5      329651           0
</event>
<event>
      5   9999  3.79277E-02  5.34114E+01 -1.00000E+00  1.37460E-01
      21    -1     0     0   502   501  0.000000000E+00  0.000000000E+00  6.074469068E+02  6.074469068E+02  0.000000000E+00  0.00000E+00  9.000E+00
      21    -1     0     0   501   511  0.000000000E+00  0.000000000E+00 -9.517921694E+01  9.517921694E+01  0.000000000E+00  0.00000E+00  9.000E+00
      25     1     1     2     0     0 -1.889488108E+01 -2.583794471E+01  4.846632871E+02  5.015457285E+02  1.250000000E+02  0.00000E+00  9.000E+00
      25     1     1     2     0     0  7.096178805E+01  1.392937684E+01  3.047559826E+01  1.475918866E+02  1.250000000E+02  0.00000E+00  9.000E+00
      21     1     1     2   502   511 -5.206690697E+01  1.190856788E+01 -2.871195505E+00  5.348850862E+01  1.008886747E-06  0.00000E+00  9.000E+00
#rwgt            2          11   1.9390076944792826E-003           5      329866           0
</event>
<event>
      5   9999  3.79277E-02  6.03542E+01 -1.00000E+00  1.34567E-01
      21    -1     0     0   502   512  0.000000000E+00  0.000000000E+00  1.206374439E+02  1.206374439E+02  0.000000000E+00  0.00000E+00  9.000E+00
      21    -1     0     0   501   502  0.000000000E+00  0.000000000E+00 -9.266609648E+02  9.266609648E+02  0.000000000E+00  0.00000E+00  9.000E+00
      25     1     1     2     0     0  9.603442894E+01 -7.232582595E+01 -7.415550517E+02  7.615658417E+02  1.250000000E+02  0.00000E+00  9.000E+00
      25     1     1     2     0     0 -1.533900431E+02  9.111298717E+01 -5.456061168E+01  2.245705727E+02  1.250000000E+02  0.00000E+00  9.000E+00
      21     1     1     2   501   512  5.735561416E+01 -1.878716122E+01 -9.907857543E+00  6.116199428E+01  9.902267293E-07  0.00000E+00  9.000E+00
#rwgt            1           1   4.0419619598163925E-002           5      329886           0
</event>
<event>
      5   9999  3.79277E-02  6.49762E+01 -1.00000E+00  1.32880E-01
      21    -1     0     0   502   501  0.000000000E+00  0.000000000E+00  1.397841756E+02  1.397841756E+02  0.000000000E+00  0.00000E+00  9.000E+00
      21    -1     0     0   501   511  0.000000000E+00  0.000000000E+00 -2.631901493E+02  2.631901493E+02  0.000000000E+00  0.00000E+00  9.000E+00
      25     1     1     2     0     0  1.077998201E+02  5.869221005E+01 -6.464346700E+01  1.867333783E+02  1.250000000E+02  0.00000E+00  9.000E+00
      25     1     1     2     0     0 -4.302942100E+01 -5.352509417E+01 -3.334071547E+01  1.464686659E+02  1.250000000E+02  0.00000E+00  9.000E+00
      21     1     1     2   502   511 -6.477039912E+01 -5.167115874E+00 -2.542179128E+01  6.977228074E+01  7.539457465E-07  0.00000E+00  9.000E+00
#rwgt            1           1   4.0481493268019537E-002           5      330041           0
</event>
<event>
      5   9999  3.79277E-02  7.51511E+01 -1.00000E+00  1.29678E-01
      21    -1     0     0   502   512  0.000000000E+00  0.000000000E+00  1.064993644E+02  1.064993644E+02  0.000000000E+00  0.00000E+00  9.000E+00
      21    -1     0     0   501   502  0.000000000E+00  0.000000000E+00 -6.453843670E+02  6.453843670E+02  0.000000000E+00  0.00000E+00  9.000E+00
      25     1     1     2     0     0 -1.579758541E+02 -1.708544982E+01 -2.432376352E+02  3.162875752E+02  1.250000000E+02  0.00000E+00  9.000E+00
      25     1     1     2     0     0  1.289237927E+02  8.639394528E+01 -3.001860711E+02  3.603081117E+02  1.250000000E+02  0.00000E+00  9.000E+00
      21     1     1     2   501   512  2.905206138E+01 -6.930849547E+01  4.538703679E+00  7.528804451E+01  5.022376641E-07  0.00000E+00  9.000E+00
#rwgt            2          11   2.1313183645965601E-003           5      330092           0
</event>
<event>
      5   9999  3.79277E-02  1.19724E+02 -1.00000E+00  1.20411E-01
      21    -1     0     0   511   501  0.000000000E+00  0.000000000E+00  1.266737121E+03  1.266737121E+03  0.000000000E+00  0.00000E+00  9.000E+00
      21    -1     0     0   501   502  0.000000000E+00  0.000000000E+00 -9.706209026E+01  9.706209026E+01  0.000000000E+00  0.00000E+00  9.000E+00
      25     1     1     2     0     0 -6.077976681E+01 -9.065423638E+01  5.495440728E+01  1.748066289E+02  1.250000000E+02  0.00000E+00  9.000E+00
      25     1     1     2     0     0  1.702296889E+02  4.213162539E+01  3.226138668E+02  3.878890665E+02  1.250000000E+02  0.00000E+00  9.000E+00
      21     1     1     2   511   502 -1.094499221E+02  4.852261098E+01  7.921067563E+02  8.011035156E+02  1.078959322E-05  0.00000E+00  9.000E+00
#rwgt            1           1   4.3152524293141314E-002           5      330487           0
</event>
<event>
      5   9999  3.79277E-02  2.53110E+01 -1.00000E+00  1.58350E-01
      21    -1     0     0   512   501  0.000000000E+00  0.000000000E+00  1.659815956E+03  1.659815956E+03  0.000000000E+00  0.00000E+00  9.000E+00
      21    -1     0     0   501   502  0.000000000E+00  0.000000000E+00 -3.533603291E+02  3.533603291E+02  0.000000000E+00  0.00000E+00  9.000E+00
      25     1     1     2     0     0  6.608073310E+01 -6.230193381E+01 -1.281057360E+01  1.550396886E+02  1.250000000E+02  0.00000E+00  9.000E+00
      25     1     1     2     0     0 -4.087522761E+01  5.999288006E+01 -2.499380784E+02  2.887281990E+02  1.250000000E+02  0.00000E+00  9.000E+00
      21     1     1     2   512   502 -2.520550550E+01  2.309053751E+00  1.569204279E+03  1.569408398E+03  0.000000000E+00  0.00000E+00  9.000E+00
#rwgt            1           1   3.2716144611185806E-002           5      330569           0
</event>
<event>
      5   9999  3.79277E-02  1.67326E+01 -1.00000E+00  1.73025E-01
      21    -1     0     0   511   501  0.000000000E+00  0.000000000E+00  6.128965331E+01  6.128965331E+01  0.000000000E+00  0.00000E+00  9.000E+00
      21    -1     0     0   501   502  0.000000000E+00  0.000000000E+00 -5.054660805E+02  5.054660805E+02  0.000000000E+00  0.00000E+00  9.000E+00
      25     1     1     2     0     0 -8.959791732E+01 -1.037448993E+01 -2.538367629E+02  2.969739366E+02  1.250000000E+02  0.00000E+00  9.000E+00
      25     1     1     2     0     0  8.480972778E+01 -5.658366421E+00 -1.998163525E+02  2.505519543E+02  1.250000000E+02  0.00000E+00  9.000E+00
      21     1     1     2   511   502  4.788189536E+00  1.603285635E+01  9.476688210E+00  1.922984298E+01  3.769728732E-07  0.00000E+00  9.000E+00
#rwgt            1           1   2.8067467618281348E-002           5      330801           0
</event>
<event>
      5   9999  3.79277E-02  1.04648E+02 -1.00000E+00  1.22947E-01
      21    -1     0     0   502   501  0.000000000E+00  0.000000000E+00  9.161878422E+01  9.161878422E+01  0.000000000E+00  0.00000E+00  9.000E+00
      21    -1     0     0   501   512  0.000000000E+00  0.000000000E+00 -1.322298853E+03  1.322298853E+03  0.000000000E+00  0.00000E+00  9.000E+00
      25     1     1     2     0     0  3.319081063E+01 -3.477037468E+01 -2.879984905E+02  3.176141361E+02  1.250000000E+02  0.00000E+00  9.000E+00
      25     1     1     2     0     0 -9.817681709E+01  1.167947560E+02 -5.819626018E+01  2.056489901E+02  1.250000000E+02  0.00000E+00  9.000E+00
      21     1     1     2   502   512  6.498600646E+01 -8.202438133E+01 -8.844853182E+02  8.906545112E+02  1.525878906E-05  0.00000E+00  9.000E+00
#rwgt            1           1   3.6728078068621030E-002           5      330980           0
</event>
<event>
      5   9999  3.79277E-02  6.70416E+00 -1.00000E+00  2.18239E-01
      21    -1     0     0   502   511  0.000000000E+00  0.000000000E+00  8.184460194E+02  8.184460194E+02  0.000000000E+00  0.00000E+00  9.000E+00
      21    -1     0     0   501   502  0.000000000E+00  0.000000000E+00 -9.995879359E+01  9.995879359E+01  0.000000000E+00  0.00000E+00  9.000E+00
      25     1     1     2     0     0 -1.726065347E+02  8.173322694E+01  2.932150143E+02  3.715822665E+02  1.250000000E+02  0.00000E+00  9.000E+00
      25     1     1     2     0     0  1.736799547E+02 -8.835089459E+01  1.598875606E+02  2.813532287E+02  1.250000000E+02  0.00000E+00  9.000E+00
      21     1     1     2   501   511 -1.073420070E+00  6.617667650E+00  2.653846509E+02  2.654693178E+02  3.814697266E-06  0.00000E+00  9.000E+00
#rwgt            1           1   4.0997590136180345E-002           5      331063           0
</event>
<event>
      5   9999  3.79277E-02  6.94165E+01 -1.00000E+00  1.31405E-01
       2    -1     0     0   502     0  0.000000000E+00  0.000000000E+00  2.234429566E+02  2.234429566E+02  0.000000000E+00  0.00000E+00  9.000E+00
      21    -1     0     0   501   502  0.000000000E+00  0.000000000E+00 -5.342085786E+02  5.342085786E+02  0.000000000E+00  0.00000E+00  9.000E+00
      25     1     1     2     0     0  1.156833071E+02 -4.170171661E+01 -2.125836088E+02  2.755693224E+02  1.250000000E+02  0.00000E+00  9.000E+00
      25     1     1     2     0     0 -9.579467744E+01 -2.480465910E+01 -2.605738010E+02  3.054760172E+02  1.250000000E+02  0.00000E+00  9.000E+00
       2     1     1     2   501     0 -1.988862969E+01  6.650637571E+01  1.623917878E+02  1.766061956E+02  4.264961200E-06  0.00000E+00  9.000E+00
#rwgt            1           1  0.28760973763835401                5      331431           0
</event>
<event>
      5   9999  3.79277E-02  3.33624E+01 -1.00000E+00  1.49903E-01
      21    -1     0     0   502   501  0.000000000E+00  0.000000000E+00  1.326678160E+02  1.326678160E+02  0.000000000E+00  0.00000E+00  9.000E+00
       2    -1     0     0   501     0  0.000000000E+00  0.000000000E+00 -6.644362074E+02  6.644362074E+02  0.000000000E+00  0.00000E+00  9.000E+00
      25     1     1     2     0     0 -3.628767224E+01 -1.338865253E+02 -5.522629727E+01  1.947237549E+02  1.250000000E+02  0.00000E+00  9.000E+00
      25     1     1     2     0     0  2.894648716E+01  1.664312465E+02 -1.154937756E+02  2.397938096E+02  1.250000000E+02  0.00000E+00  9.000E+00
       2     1     1     2   502     0  7.341185085E+00 -3.254472120E+01 -3.610483185E+02  3.625864589E+02  3.814697266E-06  0.00000E+00  9.000E+00
#rwgt            1           1   4.4907766432089227E-002           5      331548           0
</event>
<event>
      5   9999  3.79277E-02  2.86884E+01 -1.00000E+00  1.54401E-01
      21    -1     0     0   502   501  0.000000000E+00  0.000000000E+00  1.058246052E+02  1.058246052E+02  0.000000000E+00  0.00000E+00  9.000E+00
      21    -1     0     0   501   511  0.000000000E+00  0.000000000E+00 -4.808874502E+02  4.808874502E+02  0.000000000E+00  0.00000E+00  9.000E+00
      25     1     1     2     0     0  4.390278469E+00 -5.096020693E+01 -3.810663638E+02  4.042929518E+02  1.250000000E+02  0.00000E+00  9.000E+00
      25     1     1     2     0     0  2.209911524E+01  3.994499831E+01  3.902209797E+01  1.386783974E+02  1.250000000E+02  0.00000E+00  9.000E+00
      21     1     1     2   502   511 -2.648939371E+01  1.101520861E+01 -3.301857911E+01  4.374070606E+01  4.768371582E-07  0.00000E+00  9.000E+00
#rwgt            1           1   4.5200668904411670E-002           5      331740           0
</event>
<event>
      5   9999  3.79277E-02  3.23499E+01 -1.00000E+00  1.50799E-01
      21    -1     0     0   502   512  0.000000000E+00  0.000000000E+00  2.104136419E+02  2.104136419E+02  0.000000000E+00  0.00000E+00  9.000E+00
      21    -1     0     0   501   502  0.000000000E+00  0.000000000E+00 -2.017007102E+02  2.017007102E+02  0.000000000E+00  0.00000E+00  9.000E+00
      25     1     1     2     0     0  1.049394895E+01 -1.185747680E+02 -1.385461521E+01  1.731676902E+02  1.250000000E+02  0.00000E+00  9.000E+00
      25     1     1     2     0     0 -4.729463302E+00  1.504068901E+02 -6.101567445E+00  1.957213058E+02  1.250000000E+02  0.00000E+00  9.000E+00
      21     1     1     2   501   512 -5.764485650E+00 -3.183212203E+01  2.866911437E+01  4.322535606E+01  8.920806376E-07  0.00000E+00  9.000E+00
#rwgt            1           1   4.1610428804307584E-002           5      331927           0
</event>
<event>
      5   9999  3.79277E-02  4.09661E+01 -1.00000E+00  1.44200E-01
      21    -1     0     0   502   501  0.000000000E+00  0.000000000E+00  2.941125390E+02  2.941125390E+02  0.000000000E+00  0.00000E+00  9.000E+00
      21    -1     0     0   501   511  0.000000000E+00  0.000000000E+00 -2.891176238E+02  2.891176238E+02  0.000000000E+00  0.00000E+00  9.000E+00
      25     1     1     2     0     0  1.747351912E+02 -1.213776717E+02 -1.550218513E+01  2.472453113E+02  1.250000000E+02  0.00000E+00  9.000E+00
      25     1     1     2     0     0 -1.907609636E+02  1.590790571E+02  5.375956443E+01  2.832154346E+02  1.250000000E+02  0.00000E+00  9.000E+00
      21     1     1     2   502   511  1.602577237E+01 -3.770138536E+01 -3.326246414E+01  5.276941689E+01  4.768371582E-07  0.00000E+00  9.000E+00
#rwgt            1           1   2.3792556830620811E-002           5      332003           0
</event>
<event>
      5   9999  3.79277E-02  6.19876E+01 -1.00000E+00  1.33951E-01
      21    -1     0     0   502   501  0.000000000E+00  0.000000000E+00  2.092437184E+02  2.092437184E+02  0.000000000E+00  0.00000E+00  9.000E+00
      21    -1     0     0   501   512  0.000000000E+00  0.000000000E+00 -4.004301668E+02  4.004301668E+02  0.000000000E+00  0.00000E+00  9.000E+00
      25     1     1     2     0     0  9.358570031E+01  7.418701455E+01  1.050492418E+02  2.022927078E+02  1.250000000E+02  0.00000E+00  9.000E+00
      25     1     1     2     0     0 -1.536695647E+02 -8.943150931E+01 -2.222028756E+02  3.108238213E+02  1.250000000E+02  0.00000E+00  9.000E+00
      21     1     1     2   502   512  6.008386435E+01  1.524449475E+01 -7.403281465E+01  9.655735611E+01  9.536743164E-07  0.00000E+00  9.000E+00
#rwgt            1           1   3.7696506087340771E-002           5      332127           0
</event>
<event>
      5   9999  3.79277E-02  5.54339E+01 -1.00000E+00  1.36566E-01
      21    -1     0     0   502   511  0.000000000E+00  0.000000000E+00  7.318800484E+02  7.318800484E+02  0.000000000E+00  0.00000E+00  9.000E+00
      21    -1     0     0   501   502  0.000000000E+00  0.000000000E+00 -8.052037974E+01  8.052037974E+01  0.000000000E+00  0.00000E+00  9.000E+00
      25     1     1     2     0     0 -1.458998087E+02 -1.983420878E+01  2.684811446E+02  3.307374714E+02  1.250000000E+02  0.00000E+00  9.000E+00
      25     1     1     2     0     0  1.449058313E+02  7.525921267E+01  1.865084414E+02  2.776185292E+02  1.250000000E+02  0.00000E+00  9.000E+00
      21     1     1     2   501   511  9.939774234E-01 -5.542500390E+01  1.963700826E+02  2.040444275E+02  0.000000000E+00  0.00000E+00  9.000E+00
#rwgt            1           1   7.8123048281292101E-002           5      332238           0
</event>
<event>
      5   9999 -3.79277E-02  3.02634E+01 -1.00000E+00  1.52777E-01
      21    -1     0     0   502   512  0.000000000E+00  0.000000000E+00  1.079341781E+03  1.079341781E+03  0.000000000E+00  0.00000E+00  9.000E+00
      21    -1     0     0   501   502  0.000000000E+00  0.000000000E+00 -4.916188103E+01  4.916188103E+01  0.000000000E+00  0.00000E+00  9.000E+00
      25     1     1     2     0     0 -1.263767036E+02 -9.213331890E+01  4.036410631E+02  4.505671176E+02  1.250000000E+02  0.00000E+00  9.000E+00
      25     1     1     2     0     0  1.492915531E+02  1.119016055E+02  5.049605472E+02  5.526482529E+02  1.250000000E+02  0.00000E+00  9.000E+00
      21     1     1     2   501   512 -2.291484952E+01 -1.976828660E+01  1.215782898E+02  1.252882917E+02  1.907348633E-06  0.00000E+00  9.000E+00
#rwgt            1           1 -0.13792953837596467                5      332368           0
</event>
<event>
      5   9999  3.79277E-02  6.17164E+01 -1.00000E+00  1.34052E-01
      21    -1     0     0   502   501  0.000000000E+00  0.000000000E+00  9.093304570E+01  9.093304570E+01  0.000000000E+00  0.00000E+00  9.000E+00
       1    -1     0     0   501     0  0.000000000E+00  0.000000000E+00 -1.213842981E+03  1.213842981E+03  0.000000000E+00  0.00000E+00  9.000E+00
      25     1     1     2     0     0  8.160902332E+01 -1.526226634E+02 -6.020731500E+02  6.388041860E+02  1.250000000E+02  0.00000E+00  9.000E+00
      25     1     1     2     0     0 -9.791054003E+01  2.121472724E+02 -1.817800362E+02  3.213439288E+02  1.250000000E+02  0.00000E+00  9.000E+00
       1     1     1     2   502     0  1.630151671E+01 -5.952460908E+01 -3.390567495E+02  3.446279122E+02  3.814697266E-06  0.00000E+00  9.000E+00
#rwgt            1           1   4.2592924045371260E-002           5      332571           0
</event>
<event>
      5   9999  3.79277E-02  6.82713E+01 -1.00000E+00  1.31773E-01
      21    -1     0     0   502   501  0.000000000E+00  0.000000000E+00  5.827058752E+02  5.827058752E+02  0.000000000E+00  0.00000E+00  9.000E+00
      21    -1     0     0   511   502  0.000000000E+00  0.000000000E+00 -1.727977650E+02  1.727977650E+02  0.000000000E+00  0.00000E+00  9.000E+00
      25     1     1     2     0     0 -6.433018654E+01  2.024292492E+02  3.091682682E+02  3.953808188E+02  1.250000000E+02  0.00000E+00  9.000E+00
      25     1     1     2     0     0  1.325351875E+02 -1.994209213E+02  1.091615336E+02  2.913340354E+02  1.250000000E+02  0.00000E+00  9.000E+00
      21     1     1     2   511   501 -6.820500095E+01 -3.008327927E+00 -8.421691552E+00  6.878878601E+01  1.155776944E-06  0.00000E+00  9.000E+00
#rwgt            1           1   3.5779473776283308E-002           5      332741           0
</event>
<event>
      5   9999  3.79277E-02  1.70056E+01 -1.00000E+00  1.72399E-01
      21    -1     0     0   502   512  0.000000000E+00  0.000000000E+00  1.120494203E+02  1.120494203E+02  0.000000000E+00  0.00000E+00  9.000E+00
      21    -1     0     0   501   502  0.000000000E+00  0.000000000E+00 -8.131892542E+02  8.131892542E+02  0.000000000E+00  0.00000E+00  9.000E+00
      25     1     1     2     0     0 -8.724726966E+01 -1.641828479E+02 -2.292031193E+02  3.205107853E+02  1.250000000E+02  0.00000E+00  9.000E+00
      25     1     1     2     0     0  1.015424259E+02  1.549720904E+02 -5.133857254E+02  5.599259916E+02  1.250000000E+02  0.00000E+00  9.000E+00
      21     1     1     2   501   512 -1.429515620E+01  9.210757504E+00  4.144901066E+01  4.480189761E+01  0.000000000E+00  0.00000E+00  9.000E+00
#rwgt            1           1   5.0282131374997048E-002           5      332820           0
</event>
<event>
      5   9999  3.79277E-02  3.10524E+01 -1.00000E+00  1.52007E-01
      21    -1     0     0   502   501  0.000000000E+00  0.000000000E+00  6.785194040E+02  6.785194040E+02  0.000000000E+00  0.00000E+00  9.000E+00
      21    -1     0     0   501   511  0.000000000E+00  0.000000000E+00 -4.258684135E+01  4.258684135E+01  0.000000000E+00  0.00000E+00  9.000E+00
      25     1     1     2     0     0  1.926292782E+01 -9.542697677E+01  3.333373599E+02  3.690747402E+02  1.250000000E+02  0.00000E+00  9.000E+00
      25     1     1     2     0     0 -3.530024846E+01  6.883644709E+01  2.670205876E+02  3.048106924E+02  1.250000000E+02  0.00000E+00  9.000E+00
      21     1     1     2   502   511  1.603732064E+01  2.659052968E+01  3.557461510E+01  4.722081280E+01  6.743495762E-07  0.00000E+00  9.000E+00
#rwgt            1           1   3.2292463719453386E-002           5      332960           0
</event>
<event>
      5   9999  3.79277E-02  3.04193E+01 -1.00000E+00  1.52622E-01
      21    -1     0     0   502   501  0.000000000E+00  0.000000000E+00  5.941843720E+02  5.941843720E+02  0.000000000E+00  0.00000E+00  9.000E+00
      21    -1     0     0   512   502  0.000000000E+00  0.000000000E+00 -2.571262737E+02  2.571262737E+02  0.000000000E+00  0.00000E+00  9.000E+00
      25     1     1     2     0     0 -7.137480657E+01  1.258337135E+02  2.064354544E+02  2.813700114E+02  1.250000000E+02  0.00000E+00  9.000E+00
      25     1     1     2     0     0  9.400462068E+01 -1.055057146E+02  3.236001728E+02  3.745802936E+02  1.250000000E+02  0.00000E+00  9.000E+00
      21     1     1     2   512   501 -2.262981410E+01 -2.032799898E+01 -1.929775290E+02  1.953603407E+02  3.814697266E-06  0.00000E+00  9.000E+00
#rwgt            1           1   3.7693583688896429E-002           5      333090           0
</event>
<event>
      5   9999  3.79277E-02  8.14336E+01 -1.00000E+00  1.27977E-01
      21    -1     0     0   502   511  0.000000000E+00  0.000000000E+00  2.809809332E+03  2.809809332E+03  0.000000000E+00  0.00000E+00  9.000E+00
      21    -1     0     0   501   502  0.000000000E+00  0.000000000E+00 -1.560721286E+02  1.560721286E+02  0.000000000E+00  0.00000E+00  9.000E+00
      25     1     1     2     0     0 -1.672421165E+02  1.753740905E+02  7.570380240E+02  8.046474800E+02  1.250000000E+02  0.00000E+00  9.000E+00
      25     1     1     2     0     0  8.721164926E+01 -1.904260390E+02 -1.821323690E+01  2.445908218E+02  1.250000000E+02  0.00000E+00  9.000E+00
      21     1     1     2   501   511  8.003046722E+01  1.505194846E+01  1.914912416E+03  1.916643159E+03  0.000000000E+00  0.00000E+00  9.000E+00
#rwgt            1           1   3.7991342355624992E-002           5      333178           0
</event>
<event>
      5   9999  3.79277E-02  3.71449E+01 -1.00000E+00  1.46863E-01
      21    -1     0     0   502   501  0.000000000E+00  0.000000000E+00  2.670148969E+02  2.670148969E+02  0.000000000E+00  0.00000E+00  9.000E+00
      21    -1     0     0   512   502  0.000000000E+00  0.000000000E+00 -2.152498982E+02  2.152498982E+02  0.000000000E+00  0.00000E+00  9.000E+00
      25     1     1     2     0     0  6.613754130E+01  1.250679970E+02 -6.153667922E+01  1.985647026E+02  1.250000000E+02  0.00000E+00  9.000E+00
      25     1     1     2     0     0 -5.427456637E+01 -1.602676488E+02  1.250612413E+02  2.447381496E+02  1.250000000E+02  0.00000E+00  9.000E+00
      21     1     1     2   512   501 -1.186297493E+01  3.519965187E+01 -1.175956336E+01  3.896194292E+01  6.307962682E-07  0.00000E+00  9.000E+00
#rwgt            1           1   3.9407251025788827E-002           5      333233           0
</event>
<event>
      5   9999  3.79277E-02  2.41066E+01 -1.00000E+00  1.59944E-01
      21    -1     0     0   502   501  0.000000000E+00  0.000000000E+00  9.095578916E+02  9.095578916E+02  0.000000000E+00  0.00000E+00  9.000E+00
      21    -1     0     0   511   502  0.000000000E+00  0.000000000E+00 -3.729209650E+02  3.729209650E+02  0.000000000E+00  0.00000E+00  9.000E+00
      25     1     1     2     0     0 -2.272925206E+01  7.720311770E+01  1.745687446E+02  2.292949779E+02  1.250000000E+02  0.00000E+00  9.000E+00
      25     1     1     2     0     0 -2.157282684E-01 -8.459613741E+01  6.991420860E+02  7.152490541E+02  1.250000000E+02  0.00000E+00  9.000E+00
      21     1     1     2   511   501  2.294498033E+01  7.393019710E+00 -3.370739040E+02  3.379348246E+02  0.000000000E+00  0.00000E+00  9.000E+00
#rwgt            1           1   3.6462026868685243E-002           5      333390           0
</event>
<event>
      5   9999  3.79277E-02  2.03929E+01 -1.00000E+00  1.65675E-01
      21    -1     0     0   502   501  0.000000000E+00  0.000000000E+00  8.361230037E+02  8.361230037E+02  0.000000000E+00  0.00000E+00  9.000E+00
      21    -1     0     0   501   512  0.000000000E+00  0.000000000E+00 -5.647330269E+01  5.647330269E+01  0.000000000E+00  0.00000E+00  9.000E+00
      25     1     1     2     0     0 -9.049592035E+01 -1.063174531E+02  3.045951113E+02  3.576256343E+02  1.250000000E+02  0.00000E+00  9.000E+00
      25     1     1     2     0     0  8.792494449E+01  1.265476429E+02  4.747823807E+02  5.145759524E+02  1.250000000E+02  0.00000E+00  9.000E+00
      21     1     1     2   502   512  2.570975865E+00 -2.023018978E+01  2.722090003E-01  2.039471974E+01  2.215530083E-07  0.00000E+00  9.000E+00
#rwgt            1           1   2.9220233133949527E-002           5      333552           0
</event>
<event>
      5   9999  3.79277E-02  2.66506E+01 -1.00000E+00  1.56699E-01
      21    -1     0     0   502   501  0.000000000E+00  0.000000000E+00  1.094847952E+02  1.094847952E+02  0.000000000E+00  0.00000E+00  9.000E+00
      21    -1     0     0   501   511  0.000000000E+00  0.000000000E+00 -4.671257373E+02  4.671257373E+02  0.000000000E+00  0.00000E+00  9.000E+00
      25     1     1     2     0     0  6.408458749E+01  1.125458748E+02 -1.349110593E+02  2.249431088E+02  1.250000000E+02  0.00000E+00  9.000E+00
      25     1     1     2     0     0 -4.264014251E+01 -1.283696621E+02 -7.064150693E+01  1.972616901E+02  1.250000000E+02  0.00000E+00  9.000E+00
      21     1     1     2   502   511 -2.144444498E+01  1.582378727E+01 -1.520883759E+02  1.544057335E+02  2.697398305E-06  0.00000E+00  9.000E+00
#rwgt            1           1   3.0973524668077679E-002           5      333760           0
</event>
<event>
      5   9999  3.79277E-02  5.97166E+01 -1.00000E+00  1.34813E-01
      21    -1     0     0   502   501  0.000000000E+00  0.000000000E+00  4.492287504E+02  4.492287504E+02  0.000000000E+00  0.00000E+00  9.000E+00
      21    -1     0     0   512   502  0.000000000E+00  0.000000000E+00 -3.514694459E+02  3.514694459E+02  0.000000000E+00  0.00000E+00  9.000E+00
      25     1     1     2     0     0 -7.322399241E+00  2.202993535E+02  2.027495669E+02  3.245270552E+02  1.250000000E+02  0.00000E+00  9.000E+00
      25     1     1     2     0     0  6.643427539E+01 -2.118224598E+02  9.158104221E+01  2.707293016E+02  1.250000000E+02  0.00000E+00  9.000E+00
      21     1     1     2   512   501 -5.911187615E+01 -8.476893683E+00 -1.965713046E+02  2.054418395E+02  3.814697266E-06  0.00000E+00  9.000E+00
#rwgt            1           1   4.0407649932802193E-002           5      333903           0
</event>
<event>
      5   9999  3.79277E-02  2.71593E+01 -1.00000E+00  1.56102E-01
      21    -1     0     0   502   501  0.000000000E+00  0.000000000E+00  5.287435046E+01  5.287435046E+01  0.000000000E+00  0.00000E+00  9.000E+00
      21    -1     0     0   501   511  0.000000000E+00  0.000000000E+00 -9.372787546E+02  9.372787546E+02  0.000000000E+00  0.00000E+00  9.000E+00
      25     1     1     2     0     0 -4.742615378E+01  9.324282751E+01 -1.512209928E+02  2.223426491E+02  1.250000000E+02  0.00000E+00  9.000E+00
      25     1     1     2     0     0  6.032147986E+01 -6.934016168E+01 -3.404179388E+02  3.741070863E+02  1.250000000E+02  0.00000E+00  9.000E+00
      21     1     1     2   502   511 -1.289532608E+01 -2.390266583E+01 -3.927654726E+02  3.937033697E+02  7.629394531E-06  0.00000E+00  9.000E+00
#rwgt            1           1   3.1523629944182952E-002           5      334133           0
</event>
<event>
      5   9999  3.79277E-02  3.91099E+01 -1.00000E+00  1.45449E-01
      21    -1     0     0   512   501  0.000000000E+00  0.000000000E+00  1.182551002E+03  1.182551002E+03  0.000000000E+00  0.00000E+00  9.000E+00
      21    -1     0     0   501   502  0.000000000E+00  0.000000000E+00 -6.636236998E+01  6.636236998E+01  0.000000000E+00  0.00000E+00  9.000E+00
      25     1     1     2     0     0  2.771122606E+01 -6.096345948E+01  3.205319282E+01  1.453852214E+02  1.250000000E+02  0.00000E+00  9.000E+00
      25     1     1     2     0     0  9.604876706E+00  7.267223841E+01  5.781510591E+02  5.960345251E+02  1.250000000E+02  0.00000E+00  9.000E+00
      21     1     1     2   512   502 -3.731610277E+01 -1.170877893E+01  5.059843803E+02  5.074936257E+02  5.394796609E-06  0.00000E+00  9.000E+00
#rwgt            1           1   4.3338068772429753E-002           5      334301           0
</event>
<event>
      5   9999  3.79277E-02  4.84792E+01 -1.00000E+00  1.39845E-01
      21    -1     0     0   502   501  0.000000000E+00  0.000000000E+00  1.107006033E+03  1.107006033E+03  0.000000000E+00  0.00000E+00  9.000E+00
      21    -1     0     0   511   502  0.000000000E+00  0.000000000E+00 -8.211406406E+01  8.211406406E+01  0.000000000E+00  0.00000E+00  9.000E+00
      25     1     1     2     0     0  2.528372304E+01  4.456823582E+01  9.596370222E+02  9.690994834E+02  1.250000000E+02  0.00000E+00  9.000E+00
      25     1     1     2     0     0  1.265616659E+01 -1.438879359E+01 -1.387676490E+01  1.272194189E+02  1.250000000E+02  0.00000E+00  9.000E+00
      21     1     1     2   511   501 -3.793988964E+01 -3.017944224E+01  7.913171120E+01  9.280119437E+01  0.000000000E+00  0.00000E+00  9.000E+00
#rwgt            1           1   3.7756632285323062E-002           5      334650           0
</event>
<event>
      5   9999  3.79277E-02  4.41389E+01 -1.00000E+00  1.42237E-01
      21    -1     0     0   502   501  0.000000000E+00  0.000000000E+00  1.692365618E+03  1.692365618E+03  0.000000000E+00  0.00000E+00  9.000E+00
      21    -1     0     0   512   502  0.000000000E+00  0.000000000E+00 -7.572311713E+01  7.572311713E+01  0.000000000E+00  0.00000E+00  9.000E+00
      25     1     1     2     0     0  1.192398825E+02  1.300918511E+02  9.960977734E+02  1.019302611E+03  1.250000000E+02  0.00000E+00  9.000E+00
      25     1     1     2     0     0 -1.633722239E+02 -1.308547355E+02  6.510037653E+02  6.951577863E+02  1.250000000E+02  0.00000E+00  9.000E+00
      21     1     1     2   512   501  4.413234136E+01  7.628843812E-01 -3.045903818E+01  5.362833722E+01  2.185142372E-06  0.00000E+00  9.000E+00
#rwgt            1           1   2.6423920825354510E-002           5      334731           0
</event>
<event>
      5   9999  3.79277E-02  1.26913E+02 -1.00000E+00  1.19345E-01
      21    -1     0     0   502   501  0.000000000E+00  0.000000000E+00  5.681747979E+02  5.681747979E+02  0.000000000E+00  0.00000E+00  9.000E+00
      21    -1     0     0   511   502  0.000000000E+00  0.000000000E+00 -1.190435323E+03  1.190435323E+03  0.000000000E+00  0.00000E+00  9.000E+00
      25     1     1     2     0     0 -1.952395961E+02  1.009654331E+02 -3.459340255E+01  2.552140711E+02  1.250000000E+02  0.00000E+00  9.000E+00
      25     1     1     2     0     0  1.496941646E+02 -2.194241884E+02  4.063560038E+02  5.013038192E+02  1.250000000E+02  0.00000E+00  9.000E+00
      21     1     1     2   511   501  4.554543158E+01  1.184587553E+02 -9.940231266E+02  1.002092231E+03  1.078959322E-05  0.00000E+00  9.000E+00
#rwgt            1           1   5.1082890834944737E-002           5      334850           0
</event>
<event>
      5   9999  3.79277E-02  7.35658E+01 -1.00000E+00  1.30137E-01
      21    -1     0     0   502   501  0.000000000E+00  0.000000000E+00  2.407958548E+03  2.407958548E+03  0.000000000E+00  0.00000E+00  9.000E+00
      21    -1     0     0   501   512  0.000000000E+00  0.000000000E+00 -8.644902205E+01  8.644902205E+01  0.000000000E+00  0.00000E+00  9.000E+00
      25     1     1     2     0     0  1.629483427E+02 -2.763731994E+02  1.508834826E+03  1.547624580E+03  1.250000000E+02  0.00000E+00  9.000E+00
      25     1     1     2     0     0 -2.361270127E+02  2.688359691E+02  7.780908493E+02  8.654935668E+02  1.250000000E+02  0.00000E+00  9.000E+00
      21     1     1     2   502   512  7.317867002E+01  7.537230289E+00  3.458384999E+01  8.128942285E+01  6.743495762E-07  0.00000E+00  9.000E+00
#rwgt            1           1  0.11442072495418176                5      334984           0
</event>
<event>
      5   9999  3.79277E-02  1.07021E+02 -1.00000E+00  1.22517E-01
      21    -1     0     0   502   501  0.000000000E+00  0.000000000E+00  2.222043580E+02  2.222043580E+02  0.000000000E+00  0.00000E+00  9.000E+00
      21    -1     0     0   511   502  0.000000000E+00  0.000000000E+00 -8.722581948E+02  8.722581948E+02  0.000000000E+00  0.00000E+00  9.000E+00
      25     1     1     2     0     0 -2.172256569E+02 -1.215340495E+02 -2.587732692E+02  3.801922094E+02  1.250000000E+02  0.00000E+00  9.000E+00
      25     1     1     2     0     0  2.682353163E+02  2.745160080E+01  1.158974879E+01  2.974274661E+02  1.250000000E+02  0.00000E+00  9.000E+00
      21     1     1     2   511   501 -5.100965942E+01  9.408244869E+01 -4.028703164E+02  4.168428773E+02  7.629394531E-06  0.00000E+00  9.000E+00
#rwgt            1           1   3.8632294915061441E-002           5      335131           0
</event>
<event>
      5   9999  3.79277E-02  4.82957E+01 -1.00000E+00  1.39940E-01
      21    -1     0     0   512   501  0.000000000E+00  0.000000000E+00  1.333862342E+03  1.333862342E+03  0.000000000E+00  0.00000E+00  9.000E+00
      21    -1     0     0   501   502  0.000000000E+00  0.000000000E+00 -6.630515881E+01  6.630515881E+01  0.000000000E+00  0.00000E+00  9.000E+00
      25     1     1     2     0     0  2.289882226E+02 -6.883981646E+01  4.555194751E+02  5.294313162E+02  1.250000000E+02  0.00000E+00  9.000E+00
      25     1     1     2     0     0 -2.338224948E+02  2.078669640E+01  6.821542112E+02  7.321641986E+02  1.250000000E+02  0.00000E+00  9.000E+00
      21     1     1     2   512   502  4.834272197E+00  4.805312006E+01  1.298834974E+02  1.385719864E+02  1.907348633E-06  0.00000E+00  9.000E+00
#rwgt            1           1   4.4033069549361967E-002           5      335331           0
</event>
<event>
      5   9999  3.79277E-02  2.50883E+00 -1.00000E+00  3.22610E-01
      21    -1     0     0   511   501  0.000000000E+00  0.000000000E+00  2.888684428E+02  2.888684428E+02  0.000000000E+00  0.00000E+00  9.000E+00
      21    -1     0     0   501   502  0.000000000E+00  0.000000000E+00 -2.642232273E+02  2.642232273E+02  0.000000000E+00  0.00000E+00  9.000E+00
      25     1     1     2     0     0 -3.253494313E+01 -6.160098942E+01 -2.232028651E+02  2.651371784E+02  1.250000000E+02  0.00000E+00  9.000E+00
      25     1     1     2     0     0  3.495399492E+01  6.226614037E+01  2.449594936E+02  2.841285053E+02  1.250000000E+02  0.00000E+00  9.000E+00
      21     1     1     2   511   502 -2.419051782E+00 -6.651509512E-01  2.888586963E+00  3.825986403E+00  5.960464478E-08  0.00000E+00  9.000E+00
#rwgt            2          11   3.9683827538861404E-004           5      335464           0
</event>
<event>
      5   9999  3.79277E-02  2.88456E+01 -1.00000E+00  1.54233E-01
      21    -1     0     0   502   501  0.000000000E+00  0.000000000E+00  9.197270815E+02  9.197270815E+02  0.000000000E+00  0.00000E+00  9.000E+00
       1    -1     0     0   501     0  0.000000000E+00  0.000000000E+00 -5.364422301E+01  5.364422301E+01  0.000000000E+00  0.00000E+00  9.000E+00
      25     1     1     2     0     0 -1.174782788E+01  1.492621715E+00  6.538801342E+01  1.415656444E+02  1.250000000E+02  0.00000E+00  9.000E+00
      25     1     1     2     0     0  3.527350439E+01  1.519896733E+01  7.904516374E+02  8.011953693E+02  1.250000000E+02  0.00000E+00  9.000E+00
       1     1     1     2   502     0 -2.352567652E+01 -1.669158905E+01  1.024320769E+01  3.061029082E+01  7.725644944E-07  0.00000E+00  9.000E+00
#rwgt            1           1   5.7726622377817768E-002           5      335529           0
</event>
<event>
      5   9999  3.79277E-02  7.65370E+01 -1.00000E+00  1.29287E-01
      21    -1     0     0   511   501  0.000000000E+00  0.000000000E+00  2.821261589E+02  2.821261589E+02  0.000000000E+00  0.00000E+00  9.000E+00
      21    -1     0     0   501   502  0.000000000E+00  0.000000000E+00 -6.145389349E+02  6.145389349E+02  0.000000000E+00  0.00000E+00  9.000E+00
      25     1     1     2     0     0  4.946739669E+01  5.477646534E+00 -4.928695666E+02  5.109035502E+02  1.250000000E+02  0.00000E+00  9.000E+00
      25     1     1     2     0     0 -8.413725934E+01 -7.371185246E+01 -3.892043214E+01  1.721984775E+02  1.250000000E+02  0.00000E+00  9.000E+00
      21     1     1     2   511   502  3.466986265E+01  6.823420593E+01  1.993772227E+02  2.135630661E+02  0.000000000E+00  0.00000E+00  9.000E+00
#rwgt            2          11   2.5205370218732703E-003           5      335753           0
</event>
<event>
      5   9999  3.79277E-02  9.98465E+01 -1.00000E+00  1.23858E-01
      21    -1     0     0   502   501  0.000000000E+00  0.000000000E+00  6.115675599E+02  6.115675599E+02  0.000000000E+00  0.00000E+00  9.000E+00
      21    -1     0     0   501   512  0.000000000E+00  0.000000000E+00 -2.144796909E+02  2.144796909E+02  0.000000000E+00  0.00000E+00  9.000E+00
      25     1     1     2     0     0  1.405619308E+02 -5.932950067E+01  4.249438681E+02  4.684868590E+02  1.250000000E+02  0.00000E+00  9.000E+00
      25     1     1     2     0     0 -1.550097712E+02  1.581251305E+02 -3.839594296E+01  2.571591618E+02  1.250000000E+02  0.00000E+00  9.000E+00
      21     1     1     2   502   512  1.444784036E+01 -9.879562983E+01  1.053994382E+01  1.004012300E+02  8.920806376E-07  0.00000E+00  9.000E+00
#rwgt            1           1   4.6130807378409994E-002           5      335773           0
</event>
<event>
      5   9999  3.79277E-02  2.47983E+01 -1.00000E+00  1.59015E-01
       2    -1     0     0   502     0  0.000000000E+00  0.000000000E+00  2.633585062E+03  2.633585062E+03  0.000000000E+00  0.00000E+00  9.000E+00
      21    -1     0     0   501   502  0.000000000E+00  0.000000000E+00 -1.155655203E+02  1.155655203E+02  0.000000000E+00  0.00000E+00  9.000E+00
      25     1     1     2     0     0  1.661030090E+02  1.117967040E+02  1.146324738E+02  2.624010607E+02  1.250000000E+02  0.00000E+00  9.000E+00
      25     1     1     2     0     0 -1.451751647E+02 -1.251002002E+02  2.729310849E+02  3.561492182E+02  1.250000000E+02  0.00000E+00  9.000E+00
       2     1     1     2   501     0 -2.092784428E+01  1.330349621E+01  2.130455983E+03  2.130600303E+03  3.051757812E-05  0.00000E+00  9.000E+00
#rwgt            1           1   3.4370135809927260E-002           5      335837           0
</event>
<event>
      5   9999  3.79277E-02  1.03507E+02 -1.00000E+00  1.23158E-01
      21    -1     0     0   502   501  0.000000000E+00  0.000000000E+00  5.274281950E+02  5.274281950E+02  0.000000000E+00  0.00000E+00  9.000E+00
      21    -1     0     0   511   502  0.000000000E+00  0.000000000E+00 -3.281225492E+02  3.281225492E+02  0.000000000E+00  0.00000E+00  9.000E+00
      25     1     1     2     0     0 -1.245321848E+01  2.477090376E+02  1.945583371E+02  3.391058780E+02  1.250000000E+02  0.00000E+00  9.000E+00
      25     1     1     2     0     0  7.728922075E+01 -1.670242833E+02  1.976074284E+02  2.975641622E+02  1.250000000E+02  0.00000E+00  9.000E+00
      21     1     1     2   511   501 -6.483600227E+01 -8.068475424E+01 -1.928601198E+02  2.188807040E+02  3.814697266E-06  0.00000E+00  9.000E+00
#rwgt            2          11   1.8991507783669009E-003           5      336040           0
</event>
<event>
      5   9999  3.79277E-02  2.73808E+01 -1.00000E+00  1.55848E-01
      21    -1     0     0   502   501  0.000000000E+00  0.000000000E+00  2.929026950E+02  2.929026950E+02  0.000000000E+00  0.00000E+00  9.000E+00
      21    -1     0     0   512   502  0.000000000E+00  0.000000000E+00 -3.116580382E+02  3.116580382E+02  0.000000000E+00  0.00000E+00  9.000E+00
      25     1     1     2     0     0  1.473627193E+02 -1.622904997E+02  1.335958131E+02  2.855290154E+02  1.250000000E+02  0.00000E+00  9.000E+00
      25     1     1     2     0     0 -1.238032720E+02  1.762426446E+02 -1.193444332E+02  2.761463628E+02  1.250000000E+02  0.00000E+00  9.000E+00
      21     1     1     2   512   501 -2.355944727E+01 -1.395214489E+01 -3.300672322E+01  4.288535508E+01  0.000000000E+00  0.00000E+00  9.000E+00
#rwgt            1           1   2.9339998538324644E-002           5      336060           0
</event>
<event>
      5   9999  3.79277E-02  9.14272E+01 -1.00000E+00  1.25604E-01
      21    -1     0     0   502   511  0.000000000E+00  0.000000000E+00  2.414978613E+02  2.414978613E+02  0.000000000E+00  0.00000E+00  9.000E+00
      21    -1     0     0   501   502  0.000000000E+00  0.000000000E+00 -1.020465467E+03  1.020465467E+03  0.000000000E+00  0.00000E+00  9.000E+00
      25     1     1     2     0     0 -3.631188339E+02  1.960263559E+02 -2.485740239E+02  4.976903305E+02  1.250000000E+02  0.00000E+00  9.000E+00
      25     1     1     2     0     0  3.734305535E+02 -1.051824914E+02 -5.351770045E+02  6.727207154E+02  1.250000000E+02  0.00000E+00  9.000E+00
      21     1     1     2   501   511 -1.031171952E+01 -9.084386454E+01  4.783422558E+00  9.155228242E+01  1.909210369E-06  0.00000E+00  9.000E+00
#rwgt            1           1   3.3540393934377750E-002           5      336273           0
</event>
<event>
      5   9999  3.79277E-02  2.31109E+02 -1.00000E+00  1.09409E-01
      21    -1     0     0   502   501  0.000000000E+00  0.000000000E+00  1.009005548E+03  1.009005548E+03  0.000000000E+00  0.00000E+00  9.000E+00
      -2    -1     0     0     0   502  0.000000000E+00  0.000000000E+00 -2.718281928E+02  2.718281928E+02  0.000000000E+00  0.00000E+00  9.000E+00
      25     1     1     2     0     0  1.794910754E+02 -6.436872021E+00  1.536192586E+02  2.673618448E+02  1.250000000E+02  0.00000E+00  9.000E+00
      25     1     1     2     0     0 -1.356901067E+02  2.333571689E+02  6.956712311E+02  7.566048078E+02  1.250000000E+02  0.00000E+00  9.000E+00
      -2     1     1     2     0   501 -4.380096868E+01 -2.269202969E+02 -1.121131346E+02  2.568670881E+02  3.015782986E-06  0.00000E+00  9.000E+00
#rwgt            1           1   3.5127195227799946E-002           5      336459           0
</event>
<event>
      5   9999  3.79277E-02  3.93670E+01 -1.00000E+00  1.45271E-01
      21    -1     0     0   511   501  0.000000000E+00  0.000000000E+00  4.482932109E+01  4.482932109E+01  0.000000000E+00  0.00000E+00  9.000E+00
      21    -1     0     0   501   502  0.000000000E+00  0.000000000E+00 -8.845609534E+02  8.845609534E+02  0.000000000E+00  0.00000E+00  9.000E+00
      25     1     1     2     0     0  1.070662933E+02 -9.978587516E+00 -4.879088211E+02  5.150172629E+02  1.250000000E+02  0.00000E+00  9.000E+00
      25     1     1     2     0     0 -1.193767205E+02  4.737132811E+01 -2.793402811E+02  3.318897961E+02  1.250000000E+02  0.00000E+00  9.000E+00
      21     1     1     2   511   502  1.231042713E+01 -3.739274059E+01 -7.248253014E+01  8.248321550E+01  0.000000000E+00  0.00000E+00  9.000E+00
#rwgt            1           1   3.5887674309466967E-002           5      336498           0
</event>
<event>
      5   9999  3.79277E-02  1.25215E+02 -1.00000E+00  1.19589E-01
       2    -1     0     0   502     0  0.000000000E+00  0.000000000E+00  1.450376302E+03  1.450376302E+03  0.000000000E+00  0.00000E+00  9.000E+00
      21    -1     0     0   501   502  0.000000000E+00  0.000000000E+00 -3.795277806E+02  3.795277806E+02  0.000000000E+00  0.00000E+00  9.000E+00
      25     1     1     2     0     0 -1.424571957E+02 -1.569479981E+02 -1.575339036E+02  2.921791531E+02  1.250000000E+02  0.00000E+00  9.000E+00
      25     1     1     2     0     0  1.438982774E+02  2.821547955E+02  4.009285956E+01  3.428563551E+02  1.250000000E+02  0.00000E+00  9.000E+00
       2     1     1     2   501     0 -1.441081671E+00 -1.252067974E+02  1.188289565E+03  1.194868574E+03  1.525878906E-05  0.00000E+00  9.000E+00
#rwgt            1           1  0.24945318815435105                5      336670           0
</event>
<event>
      5   9999  3.79277E-02  3.96596E+01 -1.00000E+00  1.45071E-01
      21    -1     0     0   502   501  0.000000000E+00  0.000000000E+00  4.531478988E+01  4.531478988E+01  0.000000000E+00  0.00000E+00  9.000E+00
      21    -1     0     0   501   511  0.000000000E+00  0.000000000E+00 -1.211028437E+03  1.211028437E+03  0.000000000E+00  0.00000E+00  9.000E+00
      25     1     1     2     0     0 -3.251232878E+01  1.657569974E+02 -4.313704130E+02  4.798310816E+02  1.250000000E+02  0.00000E+00  9.000E+00
      25     1     1     2     0     0 -7.123222414E+00 -1.643758522E+02 -5.404177813E+02  5.785728472E+02  1.250000000E+02  0.00000E+00  9.000E+00
      21     1     1     2   502   511  3.963555119E+01 -1.381145194E+00 -1.939254533E+02  1.979392985E+02  2.697398305E-06  0.00000E+00  9.000E+00
#rwgt            1           1   3.9432215641730335E-002           5      336790           0
</event>
<event>
      5   9999  3.79277E-02  1.14578E+02 -1.00000E+00  1.21227E-01
      21    -1     0     0   512   501  0.000000000E+00  0.000000000E+00  3.916506511E+02  3.916506511E+02  0.000000000E+00  0.00000E+00  9.000E+00
      21    -1     0     0   501   502  0.000000000E+00  0.000000000E+00 -1.707556314E+02  1.707556314E+02  0.000000000E+00  0.00000E+00  9.000E+00
      25     1     1     2     0     0 -5.354709311E+01  6.351137859E+01  1.384740543E+02  2.042083497E+02  1.250000000E+02  0.00000E+00  9.000E+00
      25     1     1     2     0     0  1.673885914E+02 -7.648277420E+01  1.009201897E+01  2.227002563E+02  1.250000000E+02  0.00000E+00  9.000E+00
      21     1     1     2   512   502 -1.138414983E+02  1.297139561E+01  7.232894650E+01  1.354976765E+02  2.523185073E-06  0.00000E+00  9.000E+00
#rwgt            1           1   4.2739735423219863E-002           5      336976           0
</event>
<event>
      5   9999  3.79277E-02  3.78636E+00 -1.00000E+00  2.69217E-01
      21    -1     0     0   502   501  0.000000000E+00  0.000000000E+00  5.099880447E+01  5.099880447E+01  0.000000000E+00  0.00000E+00  9.000E+00
      21    -1     0     0   511   502  0.000000000E+00  0.000000000E+00 -1.265737531E+03  1.265737531E+03  0.000000000E+00  0.00000E+00  9.000E+00
      25     1     1     2     0     0 -6.648385650E+01 -2.002819542E+02 -4.949232563E+02  5.523649101E+02  1.250000000E+02  0.00000E+00  9.000E+00
      25     1     1     2     0     0  7.014697276E+01  2.012401222E+02 -6.648113407E+02  7.092371277E+02  1.250000000E+02  0.00000E+00  9.000E+00
      21     1     1     2   511   501 -3.663116256E+00 -9.581679432E-01 -5.500412911E+01  5.513429718E+01  0.000000000E+00  0.00000E+00  9.000E+00
#rwgt            1           1   3.6592928710885174E-002           5      337294           0
</event>
<event>
      5   9999  3.79277E-02  3.85445E+01 -1.00000E+00  1.45846E-01
      -3    -1     0     0     0   501  0.000000000E+00  0.000000000E+00  9.972365989E+01  9.972365989E+01  0.000000000E+00  0.00000E+00  9.000E+00
      21    -1     0     0   501   502  0.000000000E+00  0.000000000E+00 -1.086166258E+03  1.086166258E+03  0.000000000E+00  0.00000E+00  9.000E+00
      25     1     1     2     0     0 -2.032970087E+02  4.260280858E+01 -4.222552835E+02  4.868975226E+02  1.250000000E+02  0.00000E+00  9.000E+00
      25     1     1     2     0     0  1.714688403E+02 -6.434316907E+01 -6.040986141E+02  6.435073754E+02  1.250000000E+02  0.00000E+00  9.000E+00
      -3     1     1     2     0   502  3.182816835E+01  2.174036048E+01  3.991129969E+01  5.548501976E+01  1.846782373E-06  0.00000E+00  9.000E+00
#rwgt            1           1   3.6173699268269043E-002           5      337876           0
</event>
<event>
      5   9999  3.79277E-02  2.23429E+02 -1.00000E+00  1.09924E-01
      21    -1     0     0   502   501  0.000000000E+00  0.000000000E+00  5.732859293E+02  5.732859293E+02  0.000000000E+00  0.00000E+00  9.000E+00
      21    -1     0     0   511   502  0.000000000E+00  0.000000000E+00 -3.805154980E+02  3.805154980E+02  0.000000000E+00  0.00000E+00  9.000E+00
      25     1     1     2     0     0  1.781729746E+02  2.627289650E+02  4.718328515E+01  3.444174506E+02  1.250000000E+02  0.00000E+00  9.000E+00
      25     1     1     2     0     0  3.524630697E+01 -3.288571095E+02  1.543208038E+02  3.857838917E+02  1.250000000E+02  0.00000E+00  9.000E+00
      21     1     1     2   511   501 -2.134192815E+02  6.612814452E+01 -8.733657724E+00  2.236000850E+02  1.947895841E-06  0.00000E+00  9.000E+00
#rwgt            1           1   7.0576192625943390E-002           5      338170           0
</event>
<event>
      5   9999  3.79277E-02  8.02572E+01 -1.00000E+00  1.28282E-01
      21    -1     0     0   502   501  0.000000000E+00  0.000000000E+00  1.062700807E+02  1.062700807E+02  0.000000000E+00  0.00000E+00  9.000E+00
      21    -1     0     0   501   512  0.000000000E+00  0.000000000E+00 -5.320746975E+02  5.320746975E+02  0.000000000E+00  0.00000E+00  9.000E+00
      25     1     1     2     0     0  1.089130777E+02  8.357013674E+00 -2.744787626E+02  3.207732677E+02  1.250000000E+02  0.00000E+00  9.000E+00
      25     1     1     2     0     0 -1.182433510E+02  7.135604722E+01 -5.934588036E+01  1.954996395E+02  1.250000000E+02  0.00000E+00  9.000E+00
      21     1     1     2   502   512  9.330273256E+00 -7.971306089E+01 -9.197997388E+01  1.220718709E+02  1.348699152E-06  0.00000E+00  9.000E+00
#rwgt            1           1   3.7853484179698950E-002           5      338243           0
</event>
<event>
      5   9999  3.79277E-02  8.40544E+00 -1.00000E+00  2.04902E-01
      21    -1     0     0   511   501  0.000000000E+00  0.000000000E+00  1.745976125E+01  1.745976125E+01  0.000000000E+00  0.00000E+00  9.000E+00
      21    -1     0     0   501   502  0.000000000E+00  0.000000000E+00 -1.847991605E+03  1.847991605E+03  0.000000000E+00  0.00000E+00  9.000E+00
      25     1     1     2     0     0  4.960719598E+01 -7.503681630E+01 -4.726278656E+02  4.970849999E+02  1.250000000E+02  0.00000E+00  9.000E+00
      25     1     1     2     0     0 -5.249872577E+01  8.292924892E+01 -1.320501385E+03  1.330030934E+03  1.250000000E+02  0.00000E+00  9.000E+00
      21     1     1     2   511   502  2.891529789E+00 -7.892432625E+00 -3.740259277E+01  3.833543248E+01  4.768371582E-07  0.00000E+00  9.000E+00
#rwgt            1           1   8.8887623292226700E-002           5      338368           0
</event>
<event>
      5   9999 -3.79277E-02  9.90819E+01 -1.00000E+00  1.24008E-01
      21    -1     0     0   502   501  0.000000000E+00  0.000000000E+00  1.173698417E+02  1.173698417E+02  0.000000000E+00  0.00000E+00  9.000E+00
      21    -1     0     0   501   512  0.000000000E+00  0.000000000E+00 -8.537468142E+02  8.537468142E+02  0.000000000E+00  0.00000E+00  9.000E+00
      25     1     1     2     0     0 -1.406342512E+02 -1.914731179E+02 -3.434327350E+02  4.359025016E+02  1.250000000E+02  0.00000E+00  9.000E+00
      25     1     1     2     0     0  4.197553700E+01  1.823250311E+02 -1.436575482E+02  2.669585245E+02  1.250000000E+02  0.00000E+00  9.000E+00
      21     1     1     2   502   512  9.865871416E+01  9.148086807E+00 -2.492866894E+02  2.682556297E+02  2.697398305E-06  0.00000E+00  9.000E+00
#rwgt            1           1 -0.29640174225951382                5      338659           0
</event>
<event>
      5   9999  3.79277E-02  1.52849E+02 -1.00000E+00  1.16071E-01
      21    -1     0     0   502   501  0.000000000E+00  0.000000000E+00  1.688646969E+02  1.688646969E+02  0.000000000E+00  0.00000E+00  9.000E+00
      21    -1     0     0   501   511  0.000000000E+00  0.000000000E+00 -9.475792166E+02  9.475792166E+02  0.000000000E+00  0.00000E+00  9.000E+00
      25     1     1     2     0     0  3.014432192E+02 -1.919420300E+00 -5.974420805E+02  6.807596773E+02  1.250000000E+02  0.00000E+00  9.000E+00
      25     1     1     2     0     0 -1.505844770E+02  2.650491408E+01  1.402777354E+00  1.974972480E+02  1.250000000E+02  0.00000E+00  9.000E+00
      21     1     1     2   502   511 -1.508587422E+02 -2.458549378E+01 -1.826752165E+02  2.381869882E+02  2.697398305E-06  0.00000E+00  9.000E+00
#rwgt            1           1   3.7761564940452831E-002           5      338850           0
</event>
<event>
      5   9999  3.79277E-02  9.40460E+00 -1.00000E+00  1.98890E-01
      21    -1     0     0   502   501  0.000000000E+00  0.000000000E+00  6.234012236E+01  6.234012236E+01  0.000000000E+00  0.00000E+00  9.000E+00
      21    -1     0     0   512   502  0.000000000E+00  0.000000000E+00 -7.232608705E+02  7.232608705E+02  0.000000000E+00  0.00000E+00  9.000E+00
      25     1     1     2     0     0  1.177922811E+02 -1.180305921E+01 -3.440916403E+02  3.847575739E+02  1.250000000E+02  0.00000E+00  9.000E+00
      25     1     1     2     0     0 -1.089440434E+02  1.498977281E+01 -1.235202670E+02  2.073059436E+02  1.250000000E+02  0.00000E+00  9.000E+00
      21     1     1     2   512   501 -8.848237664E+00 -3.186713603E+00 -1.933088408E+02  1.935374754E+02  0.000000000E+00  0.00000E+00  9.000E+00
#rwgt            1           1   2.4349172635451076E-002           5      338981           0
</event>
<event>
      5   9999  3.79277E-02  1.03351E+02 -1.00000E+00  1.23187E-01
      21    -1     0     0   502   501  0.000000000E+00  0.000000000E+00  5.192337799E+02  5.192337799E+02  0.000000000E+00  0.00000E+00  9.000E+00
       1    -1     0     0   501     0  0.000000000E+00  0.000000000E+00 -4.009892671E+02  4.009892671E+02  0.000000000E+00  0.00000E+00  9.000E+00
      25     1     1     2     0     0 -1.879687363E+02 -4.309000941E+01  2.711391502E+02  3.554299277E+02  1.250000000E+02  0.00000E+00  9.000E+00
      25     1     1     2     0     0  2.096849097E+02  1.441337631E+02  9.276141307E+01  2.982817172E+02  1.250000000E+02  0.00000E+00  9.000E+00
       1     1     1     2   502     0 -2.171617344E+01 -1.010437537E+02 -2.456560505E+02  2.665114022E+02  4.672030912E-06  0.00000E+00  9.000E+00
#rwgt            1           1   3.7973520090185259E-002           5      339205           0
</event>
<event>
      5   9999  3.79277E-02  8.12333E+01 -1.00000E+00  1.28029E-01
      21    -1     0     0   502   501  0.000000000E+00  0.000000000E+00  7.540279471E+01  7.540279471E+01  0.000000000E+00  0.00000E+00  9.000E+00
       2    -1     0     0   501     0  0.000000000E+00  0.000000000E+00 -2.322546367E+03  2.322546367E+03  0.000000000E+00  0.00000E+00  9.000E+00
      25     1     1     2     0     0 -1.141189401E+02 -3.137268464E+01 -7.694705436E+02  7.884905169E+02  1.250000000E+02  0.00000E+00  9.000E+00
      25     1     1     2     0     0  1.091443093E+02  1.124535065E+02 -9.055229892E+01  2.199613380E+02  1.250000000E+02  0.00000E+00  9.000E+00
       2     1     1     2   502     0  4.974630792E+00 -8.108082183E+01 -1.387120730E+03  1.389497307E+03  2.157918644E-05  0.00000E+00  9.000E+00
#rwgt            1           1   4.8084538739062911E-002           5      339327           0
</event>
<event>
      5   9999  3.79277E-02  6.30965E+01 -1.00000E+00  1.33546E-01
      21    -1     0     0   502   501  0.000000000E+00  0.000000000E+00  1.208199406E+02  1.208199406E+02  0.000000000E+00  0.00000E+00  9.000E+00
      21    -1     0     0   511   502  0.000000000E+00  0.000000000E+00 -5.988199017E+02  5.988199017E+02  0.000000000E+00  0.00000E+00  9.000E+00
      25     1     1     2     0     0  1.491359640E+02  3.531709205E+00 -5.937268577E+00  1.947158440E+02  1.250000000E+02  0.00000E+00  9.000E+00
      25     1     1     2     0     0 -9.452045916E+01  2.806431581E+01 -3.912127620E+02  4.223673143E+02  1.250000000E+02  0.00000E+00  9.000E+00
      21     1     1     2   511   501 -5.461550485E+01 -3.159602502E+01 -8.084993060E+01  1.025566841E+02  9.536743164E-07  0.00000E+00  9.000E+00
#rwgt            1           1   4.4273315761644165E-002           5      339465           0
</event>
<event>
      5   9999  3.79277E-02  2.84793E+01 -1.00000E+00  1.54626E-01
      21    -1     0     0   502   501  0.000000000E+00  0.000000000E+00  3.499666016E+02  3.499666016E+02  0.000000000E+00  0.00000E+00  9.000E+00
      21    -1     0     0   501   512  0.000000000E+00  0.000000000E+00 -1.774667657E+02  1.774667657E+02  0.000000000E+00  0.00000E+00  9.000E+00
      25     1     1     2     0     0 -8.843729574E+01 -4.185965378E+01  2.726725229E+02  3.155133763E+02  1.250000000E+02  0.00000E+00  9.000E+00
      25     1     1     2     0     0  9.478716606E+01  1.409729779E+01 -9.147175091E+01  1.821412141E+02  1.250000000E+02  0.00000E+00  9.000E+00
      21     1     1     2   502   512 -6.349870323E+00  2.776235599E+01 -8.700936097E+00  2.977877687E+01  5.591411304E-07  0.00000E+00  9.000E+00
#rwgt            1           1   4.7762567267508264E-002           5      339639           0
</event>
<event>
      5   9999  3.79277E-02  5.95884E+00 -1.00000E+00  2.25937E-01
       2    -1     0     0   502     0  0.000000000E+00  0.000000000E+00  3.455784578E+02  3.455784578E+02  0.000000000E+00  0.00000E+00  9.000E+00
      21    -1     0     0   501   502  0.000000000E+00  0.000000000E+00 -9.300882933E+02  9.300882933E+02  0.000000000E+00  0.00000E+00  9.000E+00
      25     1     1     2     0     0  1.998591314E+02  1.838888289E+01 -5.893275694E+02  6.349911869E+02  1.250000000E+02  0.00000E+00  9.000E+00
      25     1     1     2     0     0 -2.008748732E+02 -2.426051596E+01 -2.734138285E+02  3.623801994E+02  1.250000000E+02  0.00000E+00  9.000E+00
       2     1     1     2   501     0  1.015741845E+00  5.871633075E+00  2.782315624E+02  2.782953648E+02  0.000000000E+00  0.00000E+00  9.000E+00
#rwgt            1           1   3.7436094780761986E-002           5      339829           0
</event>
<event>
      5   9999  3.79277E-02  2.02112E+01 -1.00000E+00  1.65994E-01
      21    -1     0     0   502   501  0.000000000E+00  0.000000000E+00  2.617014456E+02  2.617014456E+02  0.000000000E+00  0.00000E+00  9.000E+00
      21    -1     0     0   501   511  0.000000000E+00  0.000000000E+00 -1.317490128E+02  1.317490128E+02  0.000000000E+00  0.00000E+00  9.000E+00
      25     1     1     2     0     0  8.615239846E+01 -7.629997240E+01  9.183532691E+01  1.931389366E+02  1.250000000E+02  0.00000E+00  9.000E+00
      25     1     1     2     0     0 -7.701346098E+01  9.432696988E+01  4.254477965E+01  1.796210141E+02  1.250000000E+02  0.00000E+00  9.000E+00
      21     1     1     2   502   511 -9.138937481E+00 -1.802699748E+01 -4.427673700E+00  2.069050775E+01  2.308477966E-07  0.00000E+00  9.000E+00
#rwgt            1           1   1.7638894219376880E-002           5      340264           0
</event>
<event>
      5   9999  3.79277E-02  6.92534E+01 -1.00000E+00  1.31457E-01
      21    -1     0     0   512   501  0.000000000E+00  0.000000000E+00  9.775137437E+01  9.775137437E+01  0.000000000E+00  0.00000E+00  9.000E+00
      21    -1     0     0   501   502  0.000000000E+00  0.000000000E+00 -8.689560355E+02  8.689560355E+02  0.000000000E+00  0.00000E+00  9.000E+00
      25     1     1     2     0     0  1.193744268E+02 -5.570742389E+01 -6.416210318E+02  6.668254039E+02  1.250000000E+02  0.00000E+00  9.000E+00
      25     1     1     2     0     0 -6.315412519E+01  1.526850515E+01 -1.691423959E+02  2.201266019E+02  1.250000000E+02  0.00000E+00  9.000E+00
      21     1     1     2   512   502 -5.622030158E+01  4.043891873E+01  3.955876658E+01  7.975540403E+01  1.430511475E-06  0.00000E+00  9.000E+00
#rwgt            1           1   4.8119188287338466E-002           5      340482           0
</event>
<event>
      5   9999  3.79277E-02  1.97043E+02 -1.00000E+00  1.11884E-01
      21    -1     0     0   502   501  0.000000000E+00  0.000000000E+00  3.426304931E+02  3.426304931E+02  0.000000000E+00  0.00000E+00  9.000E+00
      21    -1     0     0   501   511  0.000000000E+00  0.000000000E+00 -3.499910214E+02  3.499910214E+02  0.000000000E+00  0.00000E+00  9.000E+00
      25     1     1     2     0     0  1.338078908E+02  1.216388727E+02 -3.446639735E+00  2.198577865E+02  1.250000000E+02  0.00000E+00  9.000E+00
      25     1     1     2     0     0  6.126185993E+01 -9.382621988E+01  1.481271844E+02  2.238817496E+02  1.250000000E+02  0.00000E+00  9.000E+00
      21     1     1     2   502   511 -1.950697507E+02 -2.781265279E+01 -1.520410730E+02  2.488819784E+02  3.303624740E-06  0.00000E+00  9.000E+00
#rwgt            1           1   3.2957215874639706E-002           5      340664           0
</event>
<event>
      5   9999  3.79277E-02  1.18903E+01 -1.00000E+00  1.87448E-01
      -1    -1     0     0     0   501  0.000000000E+00  0.000000000E+00  2.292090453E+02  2.292090453E+02  0.000000000E+00  0.00000E+00  9.000E+00
      21    -1     0     0   501   502  0.000000000E+00  0.000000000E+00 -3.254002697E+02  3.254002697E+02  0.000000000E+00  0.00000E+00  9.000E+00
      25     1     1     2     0     0  9.473807457E+01  1.063678404E+02 -4.111597089E+01  1.939199405E+02  1.250000000E+02  0.00000E+00  9.000E+00
      25     1     1     2     0     0 -8.770321669E+01 -9.678185121E+01 -1.682063588E+02  2.469351333E+02  1.250000000E+02  0.00000E+00  9.000E+00
      -1     1     1     2     0   502 -7.034857881E+00 -9.585989216E+00  1.131311052E+02  1.137542412E+02  1.348699152E-06  0.00000E+00  9.000E+00
#rwgt            1           1   2.9329456776622964E-002           5      340764           0
</event>
<event>
      5   9999  3.79277E-02  3.24517E+01 -1.00000E+00  1.50707E-01
      -1    -1     0     0     0   501  0.000000000E+00  0.000000000E+00  5.810347052E+01  5.810347052E+01  0.000000000E+00  0.00000E+00  9.000E+00
      21    -1     0     0   501   502  0.000000000E+00  0.000000000E+00 -9.571467361E+02  9.571467361E+02  0.000000000E+00  0.00000E+00  9.000E+00
      25     1     1     2     0     0 -1.034110243E+02  1.985434692E+01 -6.928264732E+02  7.118437729E+02  1.250000000E+02  0.00000E+00  9.000E+00
      25     1     1     2     0     0  1.357774364E+02 -1.750381162E+01 -1.950339236E+02  2.690820080E+02  1.250000000E+02  0.00000E+00  9.000E+00
      -1     1     1     2     0   502 -3.236641212E+01 -2.350535294E+00 -1.118286874E+01  3.432442575E+01  6.743495762E-07  0.00000E+00  9.000E+00
#rwgt            1           1   4.7155953138422232E-002           5      340949           0
</event>
<event>
      5   9999  3.79277E-02  7.14356E+01 -1.00000E+00  1.30776E-01
      21    -1     0     0   502   511  0.000000000E+00  0.000000000E+00  9.840528933E+02  9.840528933E+02  0.000000000E+00  0.00000E+00  9.000E+00
      21    -1     0     0   501   502  0.000000000E+00  0.000000000E+00 -6.910968952E+01  6.910968952E+01  0.000000000E+00  0.00000E+00  9.000E+00
      25     1     1     2     0     0  1.696436939E+02  2.194878833E+01  3.108889808E+02  3.762149526E+02  1.250000000E+02  0.00000E+00  9.000E+00
      25     1     1     2     0     0 -1.493470275E+02  4.654272431E+01  2.746980570E+02  3.399334969E+02  1.250000000E+02  0.00000E+00  9.000E+00
      21     1     1     2   501   511 -2.029666645E+01 -6.849151264E+01  3.293561661E+02  3.370141334E+02  5.394796609E-06  0.00000E+00  9.000E+00
#rwgt            1           1   2.8141564184619633E-002           5      341126           0
</event>
<event>
      5   9999  3.79277E-02  4.01852E+01 -1.00000E+00  1.44716E-01
      21    -1     0     0   502   501  0.000000000E+00  0.000000000E+00  1.630784965E+02  1.630784965E+02  0.000000000E+00  0.00000E+00  9.000E+00
      21    -1     0     0   512   502  0.000000000E+00  0.000000000E+00 -3.577644919E+02  3.577644919E+02  0.000000000E+00  0.00000E+00  9.000E+00
      25     1     1     2     0     0 -1.299094049E+02  1.228873073E+01 -1.240717707E+01  1.811253832E+02  1.250000000E+02  0.00000E+00  9.000E+00
      25     1     1     2     0     0  1.627451576E+02  1.087726470E+01 -6.467060739E+01  2.154334901E+02  1.250000000E+02  0.00000E+00  9.000E+00
      21     1     1     2   512   501 -3.283575267E+01 -2.316599543E+01 -1.176082109E+02  1.242841151E+02  0.000000000E+00  0.00000E+00  9.000E+00
#rwgt            1           1   3.1099044727679045E-002           5      341222           0
</event>
<event>
      5   9999  3.79277E-02  1.21308E+02 -1.00000E+00  1.20169E-01
      21    -1     0     0   502   511  0.000000000E+00  0.000000000E+00  1.006853683E+02  1.006853683E+02  0.000000000E+00  0.00000E+00  9.000E+00
      21    -1     0     0   501   502  0.000000000E+00  0.000000000E+00 -1.954298619E+03  1.954298619E+03  0.000000000E+00  0.00000E+00  9.000E+00
      25     1     1     2     0     0  2.665192164E+02  2.064309238E+02 -1.193352623E+03  1.246339320E+03  1.250000000E+02  0.00000E+00  9.000E+00
      25     1     1     2     0     0 -1.473506672E+02 -1.837510166E+02 -6.292801168E+02  6.834435753E+02  1.250000000E+02  0.00000E+00  9.000E+00
      21     1     1     2   501   511 -1.191685492E+02 -2.267990728E+01 -3.098051121E+01  1.252010918E+02  4.197792259E-06  0.00000E+00  9.000E+00
#rwgt            1           1   4.1819604802198762E-002           5      341333           0
</event>
<event>
      5   9999  3.79277E-02  2.72601E+01 -1.00000E+00  1.55986E-01
      21    -1     0     0   502   512  0.000000000E+00  0.000000000E+00  2.870885416E+02  2.870885416E+02  0.000000000E+00  0.00000E+00  9.000E+00
      21    -1     0     0   501   502  0.000000000E+00  0.000000000E+00 -1.469568785E+02  1.469568785E+02  0.000000000E+00  0.00000E+00  9.000E+00
      25     1     1     2     0     0  6.882786081E+01  1.102539751E+02  3.834116648E+01  1.843590478E+02  1.250000000E+02  0.00000E+00  9.000E+00
      25     1     1     2     0     0 -9.482581739E+01 -1.184527327E+02  7.214017432E+01  2.094091456E+02  1.250000000E+02  0.00000E+00  9.000E+00
      21     1     1     2   501   512  2.599795658E+01  8.198757616E+00  2.965032237E+01  4.027722669E+01  3.371747881E-07  0.00000E+00  9.000E+00
#rwgt            1           1   6.3944710712990930E-003           5      341377           0
</event>
<event>
      5   9999  3.79277E-02  2.15570E+01 -1.00000E+00  1.63727E-01
      21    -1     0     0   502   501  0.000000000E+00  0.000000000E+00  4.619726333E+01  4.619726333E+01  0.000000000E+00  0.00000E+00  9.000E+00
      21    -1     0     0   511   502  0.000000000E+00  0.000000000E+00 -1.313316536E+03  1.313316536E+03  0.000000000E+00  0.00000E+00  9.000E+00
      25     1     1     2     0     0 -1.595498200E+02  5.706938893E+01 -3.367161971E+02  3.971345585E+02  1.250000000E+02  0.00000E+00  9.000E+00
      25     1     1     2     0     0  1.552332917E+02 -3.594897813E+01 -6.423183237E+02  6.734890740E+02  1.250000000E+02  0.00000E+00  9.000E+00
      21     1     1     2   511   501  4.316528250E+00 -2.112041080E+01 -2.880847521E+02  2.888901669E+02  6.607249480E-06  0.00000E+00  9.000E+00
#rwgt            1           1   4.1088081510487338E-002           5      341506           0
</event>
<event>
      5   9999  3.79277E-02  1.00110E+02 -1.00000E+00  1.23806E-01
      21    -1     0     0   502   501  0.000000000E+00  0.000000000E+00  6.673866799E+01  6.673866799E+01  0.000000000E+00  0.00000E+00  9.000E+00
       2    -1     0     0   501     0  0.000000000E+00  0.000000000E+00 -1.495227441E+03  1.495227441E+03  0.000000000E+00  0.00000E+00  9.000E+00
      25     1     1     2     0     0  4.424862471E+01 -1.258022398E+02 -1.226396855E+02  2.201127820E+02  1.250000000E+02  0.00000E+00  9.000E+00
      25     1     1     2     0     0  4.270584685E+01  7.619412117E+01 -3.633544384E+02  3.940568250E+02  1.250000000E+02  0.00000E+00  9.000E+00
       2     1     1     2   502     0 -8.695447157E+01  4.960811863E+01 -9.424946494E+02  9.477965022E+02  0.000000000E+00  0.00000E+00  9.000E+00
#rwgt            1           1   5.1399295470690921E-002           5      341698           0
</event>
<event>
      5   9999  3.79277E-02  1.59757E+02 -1.00000E+00  1.15319E-01
       2    -1     0     0   502     0  0.000000000E+00  0.000000000E+00  1.286559181E+03  1.286559181E+03  0.000000000E+00  0.00000E+00  9.000E+00
      21    -1     0     0   501   502  0.000000000E+00  0.000000000E+00 -2.984041929E+02  2.984041929E+02  0.000000000E+00  0.00000E+00  9.000E+00
      25     1     1     2     0     0  1.197273826E+01 -2.317669059E+02 -7.758144546E+01  2.747783212E+02  1.250000000E+02  0.00000E+00  9.000E+00
      25     1     1     2     0     0  1.388545032E+02  1.791041707E+02  2.811251116E+01  2.603347658E+02  1.250000000E+02  0.00000E+00  9.000E+00
       2     1     1     2   501     0 -1.508272415E+02  5.266273521E+01  1.037623922E+03  1.049850287E+03  0.000000000E+00  0.00000E+00  9.000E+00
#rwgt            2          18   2.0276333126673751E-003           5      341806           0
</event>
<event>
      5   9999  3.79277E-02  4.22853E+01 -1.00000E+00  1.43359E-01
      21    -1     0     0   502   501  0.000000000E+00  0.000000000E+00  1.414409022E+02  1.414409022E+02  0.000000000E+00  0.00000E+00  9.000E+00
      21    -1     0     0   511   502  0.000000000E+00  0.000000000E+00 -1.715625494E+03  1.715625494E+03  0.000000000E+00  0.00000E+00  9.000E+00
      25     1     1     2     0     0 -2.347164830E+02 -2.469934442E+02 -2.294618971E+02  4.293895098E+02  1.250000000E+02  0.00000E+00  9.000E+00
      25     1     1     2     0     0  2.766811432E+02  2.521907738E+02 -9.230842142E+02  1.003923358E+03  1.250000000E+02  0.00000E+00  9.000E+00
      21     1     1     2   511   501 -4.196466022E+01 -5.197329601E+00 -4.216384801E+02  4.237535284E+02  0.000000000E+00  0.00000E+00  9.000E+00
#rwgt            1           1   3.1389309195706656E-002           5      341945           0
</event>
<event>
      5   9999  3.79277E-02  1.13454E+01 -1.00000E+00  1.89626E-01
      21    -1     0     0   512   501  0.000000000E+00  0.000000000E+00  1.431783197E+03  1.431783197E+03  0.000000000E+00  0.00000E+00  9.000E+00
      21    -1     0     0   501   502  0.000000000E+00  0.000000000E+00 -2.105602920E+01  2.105602920E+01  0.000000000E+00  0.00000E+00  9.000E+00
      25     1     1     2     0     0 -5.623316933E+01 -6.575626686E+01  9.853644123E+02  9.970226081E+02  1.250000000E+02  0.00000E+00  9.000E+00
      25     1     1     2     0     0  6.150527550E+01  5.571022529E+01  3.692576461E+02  3.985758865E+02  1.250000000E+02  0.00000E+00  9.000E+00
      21     1     1     2   512   502 -5.272106164E+00  1.004604157E+01  5.610510967E+01  5.724073187E+01  0.000000000E+00  0.00000E+00  9.000E+00
#rwgt            1           1   4.5766796334694625E-002           5      342071           0
</event>
<event>
      5   9999  3.79277E-02  3.19167E+01 -1.00000E+00  1.51195E-01
      21    -1     0     0   511   501  0.000000000E+00  0.000000000E+00  4.434263231E+02  4.434263231E+02  0.000000000E+00  0.00000E+00  9.000E+00
      21    -1     0     0   501   502  0.000000000E+00  0.000000000E+00 -7.237779084E+02  7.237779084E+02  0.000000000E+00  0.00000E+00  9.000E+00
      25     1     1     2     0     0 -2.671803361E+00 -4.004450938E+00 -1.089752846E-01  1.250927098E+02  1.250000000E+02  0.00000E+00  9.000E+00
      25     1     1     2     0     0  3.248417078E+01  1.540187134E+01 -6.540937987E+02  6.669003948E+02  1.250000000E+02  0.00000E+00  9.000E+00
      21     1     1     2   511   502 -2.981236742E+01 -1.139742040E+01  3.738511888E+02  3.752111269E+02  7.629394531E-06  0.00000E+00  9.000E+00
#rwgt            1           1   3.3500404746799751E-002           5      342251           0
</event>
<event>
      5   9999  3.79277E-02  8.32040E+01 -1.00000E+00  1.27529E-01
      21    -1     0     0   502   512  0.000000000E+00  0.000000000E+00  6.186694643E+02  6.186694643E+02  0.000000000E+00  0.00000E+00  9.000E+00
      21    -1     0     0   501   502  0.000000000E+00  0.000000000E+00 -1.503712663E+02  1.503712663E+02  0.000000000E+00  0.00000E+00  9.000E+00
      25     1     1     2     0     0 -1.814257581E+02 -4.852056537E+01  1.888373319E+02  2.942007629E+02  1.250000000E+02  0.00000E+00  9.000E+00
      25     1     1     2     0     0  2.398219313E+02  1.077893262E+02  1.692716312E+02  3.367654714E+02  1.250000000E+02  0.00000E+00  9.000E+00
      21     1     1     2   501   512 -5.839617316E+01 -5.926876088E+01  1.101892349E+02  1.380744963E+02  1.348699152E-06  0.00000E+00  9.000E+00
#rwgt            1           1   3.1426639623544993E-002           5      342373           0
</event>
<event>
      5   9999  3.79277E-02  1.25312E+01 -1.00000E+00  1.85072E-01
      21    -1     0     0   511   501  0.000000000E+00  0.000000000E+00  1.645501219E+03  1.645501219E+03  0.000000000E+00  0.00000E+00  9.000E+00
      21    -1     0     0   501   502  0.000000000E+00  0.000000000E+00 -2.411443062E+01  2.411443062E+01  0.000000000E+00  0.00000E+00  9.000E+00
      25     1     1     2     0     0  1.397983693E+02  5.172066437E+01  8.942092692E+02  9.151250343E+02  1.250000000E+02  0.00000E+00  9.000E+00
      25     1     1     2     0     0 -1.285260503E+02 -5.719487412E+01  6.680920442E+02  6.940909009E+02  1.250000000E+02  0.00000E+00  9.000E+00
      21     1     1     2   511   502 -1.127231908E+01  5.474209749E+00  5.908547458E+01  6.039971404E+01  9.536743164E-07  0.00000E+00  9.000E+00
#rwgt            1           1   4.0665819193740807E-002           5      342616           0
</event>
<event>
      5   9999  3.79277E-02  7.46468E+01 -1.00000E+00  1.29822E-01
      21    -1     0     0   502   501  0.000000000E+00  0.000000000E+00  7.949802054E+02  7.949802054E+02  0.000000000E+00  0.00000E+00  9.000E+00
      21    -1     0     0   512   502  0.000000000E+00  0.000000000E+00 -7.580453841E+01  7.580453841E+01  0.000000000E+00  0.00000E+00  9.000E+00
      25     1     1     2     0     0 -1.600192212E+02 -1.337155425E+01  4.280283147E+02  4.739390127E+02  1.250000000E+02  0.00000E+00  9.000E+00
      25     1     1     2     0     0  9.386038792E+01  4.794264891E+01  2.758224876E+02  3.206420351E+02  1.250000000E+02  0.00000E+00  9.000E+00
      21     1     1     2   512   501  6.615883332E+01 -3.457109466E+01  1.532486480E+01  7.620369606E+01  4.460403188E-07  0.00000E+00  9.000E+00
#rwgt            1           1   4.2354060257683006E-002           5      342850           0
</event>
<event>
      5   9999  3.79277E-02  7.16059E+00 -1.00000E+00  2.14171E-01
      21    -1     0     0   502   511  0.000000000E+00  0.000000000E+00  7.304119903E+02  7.304119903E+02  0.000000000E+00  0.00000E+00  9.000E+00
      21    -1     0     0   501   502  0.000000000E+00  0.000000000E+00 -2.756255121E+02  2.756255121E+02  0.000000000E+00  0.00000E+00  9.000E+00
      25     1     1     2     0     0  2.440786044E+01 -5.817191008E+01 -2.252469026E+02  2.652185550E+02  1.250000000E+02  0.00000E+00  9.000E+00
      25     1     1     2     0     0 -2.800482085E+01  5.198031025E+01  1.269523338E+02  1.876915493E+02  1.250000000E+02  0.00000E+00  9.000E+00
      21     1     1     2   501   511  3.596960410E+00  6.191599826E+00  5.530810470E+02  5.531273981E+02  0.000000000E+00  0.00000E+00  9.000E+00
#rwgt            1           1   4.4295049352588454E-002           5      342998           0
</event>
<event>
      5   9999  3.79277E-02  2.74157E+01 -1.00000E+00  1.55808E-01
      21    -1     0     0   502   501  0.000000000E+00  0.000000000E+00  3.415078205E+01  3.415078205E+01  0.000000000E+00  0.00000E+00  9.000E+00
       2    -1     0     0   501     0  0.000000000E+00  0.000000000E+00 -2.601191165E+03  2.601191165E+03  0.000000000E+00  0.00000E+00  9.000E+00
      25     1     1     2     0     0 -1.121011583E+02 -1.286610902E+01 -3.585748315E+02  3.961478464E+02  1.250000000E+02  0.00000E+00  9.000E+00
      25     1     1     2     0     0  8.502222880E+01  1.714983412E+01 -3.639027262E+02  3.944275477E+02  1.250000000E+02  0.00000E+00  9.000E+00
       2     1     1     2   502     0  2.707892948E+01 -4.283725100E+00 -1.844562825E+03  1.844766553E+03  3.051757812E-05  0.00000E+00  9.000E+00
#rwgt            1           1   3.1763307091259352E-002           5      343348           0
</event>
<event>
      5   9999  3.79277E-02  5.60483E+01 -1.00000E+00  1.36304E-01
      -3    -1     0     0     0   501  0.000000000E+00  0.000000000E+00  2.113650808E+02  2.113650808E+02  0.000000000E+00  0.00000E+00  9.000E+00
      21    -1     0     0   501   502  0.000000000E+00  0.000000000E+00 -4.311255736E+02  4.311255736E+02  0.000000000E+00  0.00000E+00  9.000E+00
      25     1     1     2     0     0 -7.684485442E+01  1.364012718E+02 -2.738154371E+02  3.392791361E+02  1.250000000E+02  0.00000E+00  9.000E+00
      25     1     1     2     0     0  2.611936219E+01 -1.125615600E+02 -5.641871663E+01  1.793332023E+02  1.250000000E+02  0.00000E+00  9.000E+00
      -3     1     1     2     0   502  5.072549223E+01 -2.383971182E+01  1.104736609E+02  1.238783160E+02  1.348699152E-06  0.00000E+00  9.000E+00
#rwgt            1           1   4.4018468841967300E-002           5      343549           0
</event>
<event>
      5   9999  3.79277E-02  2.60785E+01 -1.00000E+00  1.57389E-01
       1    -1     0     0   502     0  0.000000000E+00  0.000000000E+00  8.174053281E+02  8.174053281E+02  0.000000000E+00  0.00000E+00  9.000E+00
      21    -1     0     0   501   502  0.000000000E+00  0.000000000E+00 -1.856623218E+02  1.856623218E+02  0.000000000E+00  0.00000E+00  9.000E+00
      25     1     1     2     0     0  7.134401912E+01  1.111368975E+02 -5.562606084E+01  1.901595059E+02  1.250000000E+02  0.00000E+00  9.000E+00
      25     1     1     2     0     0 -7.724012525E+01 -1.365401366E+02  9.850509936E+01  2.234670008E+02  1.250000000E+02  0.00000E+00  9.000E+00
       1     1     1     2   501     0  5.896106133E+00  2.540323911E+01  5.888639678E+02  5.894411431E+02  0.000000000E+00  0.00000E+00  9.000E+00
#rwgt            1           1   3.4770072337804089E-002           5      343800           0
</event>
<event>
      5   9999 -3.79277E-02  7.29717E+01 -1.00000E+00  1.30313E-01
      21    -1     0     0   502   501  0.000000000E+00  0.000000000E+00  7.308820726E+02  7.308820726E+02  0.000000000E+00  0.00000E+00  9.000E+00
      21    -1     0     0   501   511  0.000000000E+00  0.000000000E+00 -1.833975696E+02  1.833975696E+02  0.000000000E+00  0.00000E+00  9.000E+00
      25     1     1     2     0     0 -2.911939059E+02 -3.357326308E+00  1.095431481E+02  3.353056274E+02  1.250000000E+02  0.00000E+00  9.000E+00
      25     1     1     2     0     0  2.630635438E+02  7.068898921E+01  3.891874487E+02  4.912140384E+02  1.250000000E+02  0.00000E+00  9.000E+00
      21     1     1     2   502   511  2.813036207E+01 -6.733166290E+01  4.875390613E+01  8.775997643E+01  9.536743164E-07  0.00000E+00  9.000E+00
#rwgt            1           1 -0.14772024116425070                5      343916           0
</event>
<event>
      5   9999  3.79277E-02  7.04476E+01 -1.00000E+00  1.31081E-01
      21    -1     0     0   502   512  0.000000000E+00  0.000000000E+00  5.066491480E+02  5.066491480E+02  0.000000000E+00  0.00000E+00  9.000E+00
      21    -1     0     0   501   502  0.000000000E+00  0.000000000E+00 -2.703639872E+02  2.703639872E+02  0.000000000E+00  0.00000E+00  9.000E+00
      25     1     1     2     0     0 -1.009811753E+02 -2.690965455E+02 -2.219283077E+01  3.142095961E+02  1.250000000E+02  0.00000E+00  9.000E+00
      25     1     1     2     0     0  1.502371099E+02  2.187307653E+02  1.401368004E+02  3.250810049E+02  1.250000000E+02  0.00000E+00  9.000E+00
      21     1     1     2   501   512 -4.925593457E+01  5.036578017E+01  1.183411912E+02  1.377225342E+02  1.348699152E-06  0.00000E+00  9.000E+00
#rwgt            1           1   3.9976522080808423E-002           5      344067           0
</event>
<event>
      5   9999  3.79277E-02  2.40437E+01 -1.00000E+00  1.60030E-01
      21    -1     0     0   502   511  0.000000000E+00  0.000000000E+00  9.141720035E+02  9.141720035E+02  0.000000000E+00  0.00000E+00  9.000E+00
      21    -1     0     0   501   502  0.000000000E+00  0.000000000E+00 -4.957262328E+01  4.957262328E+01  0.000000000E+00  0.00000E+00  9.000E+00
      25     1     1     2     0     0  7.042152485E+01  8.817863831E+01  1.575727817E+02  2.306270690E+02  1.250000000E+02  0.00000E+00  9.000E+00
      25     1     1     2     0     0 -8.302749896E+01 -6.770450477E+01  5.451641187E+02  5.694790442E+02  1.250000000E+02  0.00000E+00  9.000E+00
      21     1     1     2   501   511  1.260597412E+01 -2.047413354E+01  1.618624799E+02  1.636385136E+02  0.000000000E+00  0.00000E+00  9.000E+00
#rwgt            1           1   5.0127544801737344E-003           5      344249           0
</event>
<event>
      5   9999  3.79277E-02  1.24561E+02 -1.00000E+00  1.19685E-01
      21    -1     0     0   512   501  0.000000000E+00  0.000000000E+00  8.189016633E+02  8.189016633E+02  0.000000000E+00  0.00000E+00  9.000E+00
      21    -1     0     0   501   502  0.000000000E+00  0.000000000E+00 -2.602267845E+02  2.602267845E+02  0.000000000E+00  0.00000E+00  9.000E+00
      25     1     1     2     0     0 -2.472142530E+02  1.611087131E+01  1.541281809E+01  2.779154584E+02  1.250000000E+02  0.00000E+00  9.000E+00
      25     1     1     2     0     0  1.237358450E+02 -3.249786171E+01 -5.734142414E+01  1.878289362E+02  1.250000000E+02  0.00000E+00  9.000E+00
      21     1     1     2   512   502  1.234784080E+02  1.638699040E+01  6.006034848E+02  6.133840532E+02  7.629394531E-06  0.00000E+00  9.000E+00
#rwgt            1           1   2.6671768451995748E-002           5      344418           0
</event>
<event>
      5   9999  3.79277E-02  1.81705E+02 -1.00000E+00  1.13186E-01
      21    -1     0     0   502   501  0.000000000E+00  0.000000000E+00  2.268403959E+02  2.268403959E+02  0.000000000E+00  0.00000E+00  9.000E+00
      21    -1     0     0   501   511  0.000000000E+00  0.000000000E+00 -1.077799752E+03  1.077799752E+03  0.000000000E+00  0.00000E+00  9.000E+00
      25     1     1     2     0     0  2.665970330E+01  2.580462074E+02 -2.852017784E+02  4.052945094E+02  1.250000000E+02  0.00000E+00  9.000E+00
      25     1     1     2     0     0 -1.185508177E+02 -4.148030357E+02 -2.015018428E+02  4.922843156E+02  1.250000000E+02  0.00000E+00  9.000E+00
      21     1     1     2   502   511  9.189111440E+01  1.567568282E+02 -3.642557353E+02  4.070613232E+02  5.394796609E-06  0.00000E+00  9.000E+00
#rwgt            1           1   3.2116631386964106E-002           5      344597           0
</event>
<event>
      5   9999  3.79277E-02  2.22343E+02 -1.00000E+00  1.09999E-01
      21    -1     0     0   502   501  0.000000000E+00  0.000000000E+00  4.357025776E+02  4.357025776E+02  0.000000000E+00  0.00000E+00  9.000E+00
       2    -1     0     0   501     0  0.000000000E+00  0.000000000E+00 -8.002619598E+02  8.002619598E+02  0.000000000E+00  0.00000E+00  9.000E+00
      25     1     1     2     0     0 -1.921394681E+02  1.108107434E+02  2.686616374E+02  3.701360175E+02  1.250000000E+02  0.00000E+00  9.000E+00
      25     1     1     2     0     0 -2.673527482E+01 -1.499298024E+02 -2.474355596E+00  1.970402066E+02  1.250000000E+02  0.00000E+00  9.000E+00
       2     1     1     2   502     0  2.188747429E+02  3.911905905E+01 -6.307466640E+02  6.687883133E+02  7.629394531E-06  0.00000E+00  9.000E+00
#rwgt            2          13   1.1406298197876499E-003           5      344866           0
</event>
<event>
      5   9999  3.79277E-02  6.60338E+01 -1.00000E+00  1.32517E-01
      21    -1     0     0   502   501  0.000000000E+00  0.000000000E+00  1.194208589E+02  1.194208589E+02  0.000000000E+00  0.00000E+00  9.000E+00
      21    -1     0     0   501   511  0.000000000E+00  0.000000000E+00 -8.140610844E+02  8.140610844E+02  0.000000000E+00  0.00000E+00  9.000E+00
      25     1     1     2     0     0  6.202544980E+01 -1.002796622E+02  3.265495413E+01  1.749128729E+02  1.250000000E+02  0.00000E+00  9.000E+00
      25     1     1     2     0     0 -7.459176037E+00  6.309108301E+01 -3.798356301E+02  4.048903925E+02  1.250000000E+02  0.00000E+00  9.000E+00
      21     1     1     2   502   511 -5.456627377E+01  3.718857918E+01 -3.474595495E+02  3.536786779E+02  5.394796609E-06  0.00000E+00  9.000E+00
#rwgt            1           1   4.4305642399471032E-002           5      344930           0
</event>
<event>
      5   9999  3.79277E-02  1.43663E+01 -1.00000E+00  1.79168E-01
      21    -1     0     0   512   501  0.000000000E+00  0.000000000E+00  1.805790366E+02  1.805790366E+02  0.000000000E+00  0.00000E+00  9.000E+00
      21    -1     0     0   501   502  0.000000000E+00  0.000000000E+00 -3.885335495E+02  3.885335495E+02  0.000000000E+00  0.00000E+00  9.000E+00
      25     1     1     2     0     0 -1.809012367E+02  9.416146912E+01 -1.815160380E+02  3.002743941E+02  1.250000000E+02  0.00000E+00  9.000E+00
      25     1     1     2     0     0  1.677950678E+02 -1.000452126E+02 -5.366592534E+01  2.380530632E+02  1.250000000E+02  0.00000E+00  9.000E+00
      21     1     1     2   512   502  1.310616886E+01  5.883743521E+00  2.722745041E+01  3.078512881E+01  4.768371582E-07  0.00000E+00  9.000E+00
#rwgt            1           1   3.0808861553021791E-002           5      344990           0
</event>
<event>
      5   9999  3.79277E-02  1.48080E+02 -1.00000E+00  1.16616E-01
      21    -1     0     0   511   501  0.000000000E+00  0.000000000E+00  9.421380518E+01  9.421380518E+01  0.000000000E+00  0.00000E+00  9.000E+00
      21    -1     0     0   501   502  0.000000000E+00  0.000000000E+00 -1.448450393E+03  1.448450393E+03  0.000000000E+00  0.00000E+00  9.000E+00
      25     1     1     2     0     0  6.746151356E+01  8.209089573E+01 -1.215746301E+03  1.226765682E+03  1.250000000E+02  0.00000E+00  9.000E+00
      25     1     1     2     0     0 -6.365081032E+00  5.279794140E+01 -6.597593332E+01  1.510164251E+02  1.250000000E+02  0.00000E+00  9.000E+00
      21     1     1     2   511   502 -6.109643253E+01 -1.348888371E+02 -7.251435387E+01  1.648820911E+02  1.907348633E-06  0.00000E+00  9.000E+00
#rwgt            1           1   3.6015242039254415E-002           5      345236           0
</event>
<event>
      5   9999  3.79277E-02  1.25458E+02  7.55638E-03  1.19554E-01
       2    -1     0     0   501     0  0.000000000E+00  0.000000000E+00  1.417889537E+02  1.417889537E+02  0.000000000E+00  0.00000E+00  9.000E+00
      -2    -1     0     0     0   502  0.000000000E+00  0.000000000E+00 -5.467446797E+02  5.467446797E+02  0.000000000E+00  0.00000E+00  9.000E+00
      25     1     1     2     0     0  5.372102475E+01  2.211828734E+01 -1.873638976E+02  2.326056690E+02  1.250000000E+02  0.00000E+00  9.000E+00
      25     1     1     2     0     0 -1.397021372E+02 -1.134800209E+02 -2.437515714E+02  3.277716138E+02  1.250000000E+02  0.00000E+00  9.000E+00
      21     1     1     2   501   502  8.598111247E+01  9.136173356E+01  2.615974294E+01  1.281563506E+02  1.469710828E-06  0.00000E+00  9.000E+00
#rwgt            3           7   6.0635779860583146E-005           5      345327           0
</event>
<event>
      5   9999  3.79277E-02  1.07154E+02 -1.00000E+00  1.22493E-01
      21    -1     0     0   511   501  0.000000000E+00  0.000000000E+00  2.135101354E+02  2.135101354E+02  0.000000000E+00  0.00000E+00  9.000E+00
      21    -1     0     0   501   502  0.000000000E+00  0.000000000E+00 -2.270411158E+02  2.270411158E+02  0.000000000E+00  0.00000E+00  9.000E+00
      25     1     1     2     0     0 -7.248711366E+00  6.905728766E+01  4.255511276E+01  1.491891096E+02  1.250000000E+02  0.00000E+00  9.000E+00
      25     1     1     2     0     0 -6.759560703E+01  7.625956207E+00 -1.016882934E+02  1.749080624E+02  1.250000000E+02  0.00000E+00  9.000E+00
      21     1     1     2   511   502  7.484431840E+01 -7.668324387E+01  4.560220028E+01  1.164540792E+02  0.000000000E+00  0.00000E+00  9.000E+00
#rwgt            1           1   9.8688691039324303E-002           5      345376           0
</event>
<event>
      5   9999  3.79277E-02  2.44791E+02 -1.00000E+00  1.08544E-01
      21    -1     0     0   502   501  0.000000000E+00  0.000000000E+00  4.479591915E+02  4.479591915E+02  0.000000000E+00  0.00000E+00  9.000E+00
      21    -1     0     0   501   512  0.000000000E+00  0.000000000E+00 -3.430720626E+02  3.430720626E+02  0.000000000E+00  0.00000E+00  9.000E+00
      25     1     1     2     0     0 -4.709540463E+01  1.407539735E+02  7.521096565E+01  2.081137851E+02  1.250000000E+02  0.00000E+00  9.000E+00
      25     1     1     2     0     0  2.122470445E+02  3.993271719E+01  1.688820575E+02  3.013130916E+02  1.250000000E+02  0.00000E+00  9.000E+00
      21     1     1     2   502   512 -1.651516399E+02 -1.806866907E+02 -1.392058943E+02  2.816043774E+02  1.907348633E-06  0.00000E+00  9.000E+00
#rwgt            2          11   1.6468110128747919E-003           5      345470           0
</event>
<event>
      5   9999  3.79277E-02  5.96667E+01 -1.00000E+00  1.34833E-01
      21    -1     0     0   511   501  0.000000000E+00  0.000000000E+00  2.655641145E+02  2.655641145E+02  0.000000000E+00  0.00000E+00  9.000E+00
      21    -1     0     0   501   502  0.000000000E+00  0.000000000E+00 -2.281167383E+02  2.281167383E+02  0.000000000E+00  0.00000E+00  9.000E+00
      25     1     1     2     0     0 -1.448669875E+01  4.123150686E+01 -1.696606842E+02  2.152200022E+02  1.250000000E+02  0.00000E+00  9.000E+00
      25     1     1     2     0     0  2.827601946E+00  1.728497159E+01  1.338151959E+02  1.839518204E+02  1.250000000E+02  0.00000E+00  9.000E+00
      21     1     1     2   511   502  1.165909681E+01 -5.851647845E+01  7.329286453E+01  9.450903015E+01  0.000000000E+00  0.00000E+00  9.000E+00
#rwgt            1           1   4.2507984743765950E-002           5      345505           0
</event>
<event>
      5   9999  3.79277E-02  5.12109E+00 -1.00000E+00  2.36715E-01
      21    -1     0     0   502   501  0.000000000E+00  0.000000000E+00  8.782880176E+01  8.782880176E+01  0.000000000E+00  0.00000E+00  9.000E+00
      21    -1     0     0   512   502  0.000000000E+00  0.000000000E+00 -7.816297152E+02  7.816297152E+02  0.000000000E+00  0.00000E+00  9.000E+00
      25     1     1     2     0     0 -1.529635433E+02 -1.696286712E+02 -3.586055867E+02  4.431644147E+02  1.250000000E+02  0.00000E+00  9.000E+00
      25     1     1     2     0     0  1.478532925E+02  1.692955927E+02 -3.217711592E+02  4.119262952E+02  1.250000000E+02  0.00000E+00  9.000E+00
      21     1     1     2   512   501  5.110250796E+00  3.330784822E-01 -1.342416752E+01  1.436780700E+01  1.685873940E-07  0.00000E+00  9.000E+00
#rwgt            1           1   3.8018531691333748E-002           5      345628           0
</event>
<event>
      5   9999  3.79277E-02  4.49312E+01 -1.00000E+00  1.41777E-01
       4    -1     0     0   502     0  0.000000000E+00  0.000000000E+00  7.836806017E+01  7.836806017E+01  0.000000000E+00  0.00000E+00  9.000E+00
      21    -1     0     0   501   502  0.000000000E+00  0.000000000E+00 -1.174286900E+03  1.174286900E+03  0.000000000E+00  0.00000E+00  9.000E+00
      25     1     1     2     0     0 -1.354886875E+02 -1.165140655E+02 -5.931188146E+02  6.319395859E+02  1.250000000E+02  0.00000E+00  9.000E+00
      25     1     1     2     0     0  1.593056111E+02  1.546134759E+02 -2.268451299E+02  3.411265420E+02  1.250000000E+02  0.00000E+00  9.000E+00
       4     1     1     2   501     0 -2.381692363E+01 -3.809941046E+01 -2.759548957E+02  2.795888328E+02  5.394796609E-06  0.00000E+00  9.000E+00
#rwgt            1           1   4.1845187967541345E-002           5      345997           0
</event>
<event>
      5   9999  3.79277E-02  1.12180E+01 -1.00000E+00  1.90158E-01
      21    -1     0     0   502   501  0.000000000E+00  0.000000000E+00  2.446528415E+02  2.446528415E+02  0.000000000E+00  0.00000E+00  9.000E+00
      21    -1     0     0   501   511  0.000000000E+00  0.000000000E+00 -2.851493444E+02  2.851493444E+02  0.000000000E+00  0.00000E+00  9.000E+00
      25     1     1     2     0     0  1.090961967E+02 -1.466993631E+02  1.080526500E+02  2.464204911E+02  1.250000000E+02  0.00000E+00  9.000E+00
      25     1     1     2     0     0 -1.038474468E+02  1.367849671E+02 -1.022491094E+02  2.357420196E+02  1.250000000E+02  0.00000E+00  9.000E+00
      21     1     1     2   502   511 -5.248749839E+00  9.914396016E+00 -4.630004352E+01  4.763967520E+01  6.743495762E-07  0.00000E+00  9.000E+00
#rwgt            1           1   3.2541352649888389E-002           5      346097           0
</event>
<event>
      5   9999  3.79277E-02  3.81003E+01 -1.00000E+00  1.46163E-01
      21    -1     0     0   502   501  0.000000000E+00  0.000000000E+00  1.694089220E+02  1.694089220E+02  0.000000000E+00  0.00000E+00  9.000E+00
      21    -1     0     0   501   512  0.000000000E+00  0.000000000E+00 -4.058606653E+02  4.058606653E+02  0.000000000E+00  0.00000E+00  9.000E+00
      25     1     1     2     0     0  6.083741866E+01  1.728782580E+02 -4.624836076E+01  2.266097846E+02  1.250000000E+02  0.00000E+00  9.000E+00
      25     1     1     2     0     0 -4.275465667E+01 -2.064140452E+02 -1.300079084E+02  2.774198532E+02  1.250000000E+02  0.00000E+00  9.000E+00
      21     1     1     2   502   512 -1.808276200E+01  3.353578723E+01 -6.019547410E+01  7.123994953E+01  0.000000000E+00  0.00000E+00  9.000E+00
#rwgt            1           1   3.7110538014944100E-002           5      346410           0
</event>
<event>
      5   9999  3.79277E-02  1.33123E+01 -1.00000E+00  1.82411E-01
      21    -1     0     0   502   511  0.000000000E+00  0.000000000E+00  2.337273866E+02  2.337273866E+02  0.000000000E+00  0.00000E+00  9.000E+00
      21    -1     0     0   501   502  0.000000000E+00  0.000000000E+00 -5.094609911E+02  5.094609911E+02  0.000000000E+00  0.00000E+00  9.000E+00
      25     1     1     2     0     0 -1.098840046E+02  3.537562505E+01 -4.487880921E+02  4.799600826E+02  1.250000000E+02  0.00000E+00  9.000E+00
      25     1     1     2     0     0  1.176287987E+02 -2.454811526E+01  1.260255712E+02  2.143515544E+02  1.250000000E+02  0.00000E+00  9.000E+00
      21     1     1     2   501   511 -7.744794102E+00 -1.082750978E+01  4.702891640E+01  4.887674070E+01  0.000000000E+00  0.00000E+00  9.000E+00
#rwgt            1           1   3.7005884268211248E-002           5      346490           0
</event>
<event>
      5   9999  3.79277E-02  8.00739E+01 -1.00000E+00  1.28330E-01
      21    -1     0     0   502   512  0.000000000E+00  0.000000000E+00  2.309308962E+02  2.309308962E+02  0.000000000E+00  0.00000E+00  9.000E+00
      21    -1     0     0   501   502  0.000000000E+00  0.000000000E+00 -3.058187923E+02  3.058187923E+02  0.000000000E+00  0.00000E+00  9.000E+00
      25     1     1     2     0     0 -2.974669721E+01  7.700401688E+00  5.264746051E+01  1.390716264E+02  1.250000000E+02  0.00000E+00  9.000E+00
      25     1     1     2     0     0  6.768671886E+01  6.281474189E+01 -2.237973216E+02  2.724654563E+02  1.250000000E+02  0.00000E+00  9.000E+00
      21     1     1     2   501   512 -3.794002165E+01 -7.051514358E+01  9.626196502E+01  1.252126057E+02  0.000000000E+00  0.00000E+00  9.000E+00
#rwgt            1           1   4.2466197563714295E-002           5      346780           0
</event>
<event>
      5   9999  3.79277E-02  7.20081E+01 -1.00000E+00  1.30602E-01
      21    -1     0     0   511   501  0.000000000E+00  0.000000000E+00  4.119233310E+02  4.119233310E+02  0.000000000E+00  0.00000E+00  9.000E+00
      21    -1     0     0   501   502  0.000000000E+00  0.000000000E+00 -1.289371091E+02  1.289371091E+02  0.000000000E+00  0.00000E+00  9.000E+00
      25     1     1     2     0     0  8.950743607E+00 -1.406355185E+02  7.686949025E+01  2.034511819E+02  1.250000000E+02  0.00000E+00  9.000E+00
      25     1     1     2     0     0  6.289592281E+01  1.358163379E+02  1.550031237E+02  2.491042816E+02  1.250000000E+02  0.00000E+00  9.000E+00
      21     1     1     2   511   502 -7.184666642E+01  4.819180622E+00  5.111360793E+01  8.830497661E+01  1.784161275E-06  0.00000E+00  9.000E+00
#rwgt            1           1   3.3075798777283137E-002           5      346878           0
</event>
<event>
      5   9999  3.79277E-02  1.91799E+01 -1.00000E+00  1.67883E-01
      21    -1     0     0   502   512  0.000000000E+00  0.000000000E+00  8.214329807E+01  8.214329807E+01  0.000000000E+00  0.00000E+00  9.000E+00
      21    -1     0     0   501   502  0.000000000E+00  0.000000000E+00 -5.836951468E+02  5.836951468E+02  0.000000000E+00  0.00000E+00  9.000E+00
      25     1     1     2     0     0 -9.544402718E+01 -9.649354449E+01 -1.461210780E+02  2.353655368E+02  1.250000000E+02  0.00000E+00  9.000E+00
      25     1     1     2     0     0  1.058479004E+02  1.126065377E+02 -3.595692195E+02  4.108515960E+02  1.250000000E+02  0.00000E+00  9.000E+00
      21     1     1     2   501   512 -1.040387321E+01 -1.611299322E+01  4.138448806E+00  1.962131206E+01  1.685873940E-07  0.00000E+00  9.000E+00
#rwgt            1           1   3.6931625162697615E-002           5      346957           0
</event>
<event>
      5   9999  3.79277E-02  4.62347E+01 -1.00000E+00  1.41044E-01
      21    -1     0     0   502   511  0.000000000E+00  0.000000000E+00  2.346212828E+02  2.346212828E+02  0.000000000E+00  0.00000E+00  9.000E+00
      21    -1     0     0   501   502  0.000000000E+00  0.000000000E+00 -6.854934653E+02  6.854934653E+02  0.000000000E+00  0.00000E+00  9.000E+00
      25     1     1     2     0     0  1.561222338E+02 -9.406741750E+00 -6.101221613E+02  6.421344799E+02  1.250000000E+02  0.00000E+00  9.000E+00
      25     1     1     2     0     0 -1.170768591E+02  3.416767838E+01  9.495041378E+01  1.987838078E+02  1.250000000E+02  0.00000E+00  9.000E+00
      21     1     1     2   501   511 -3.904537470E+01 -2.476093663E+01  6.429956499E+01  7.919646031E+01  1.348699152E-06  0.00000E+00  9.000E+00
#rwgt            1           1   4.1138365760467692E-002           5      347139           0
</event>
<event>
      5   9999  3.79277E-02  3.86679E+01 -1.00000E+00  1.45758E-01
      21    -1     0     0   502   512  0.000000000E+00  0.000000000E+00  5.274262746E+01  5.274262746E+01  0.000000000E+00  0.00000E+00  9.000E+00
      21    -1     0     0   501   502  0.000000000E+00  0.000000000E+00 -9.858452161E+02  9.858452161E+02  0.000000000E+00  0.00000E+00  9.000E+00
      25     1     1     2     0     0 -7.010408043E+01 -6.995633781E+01 -6.316530714E+02  6.514745382E+02  1.250000000E+02  0.00000E+00  9.000E+00
      25     1     1     2     0     0  8.191556809E+01  1.067761078E+02 -2.955838641E+02  3.480030434E+02  1.250000000E+02  0.00000E+00  9.000E+00
      21     1     1     2   501   512 -1.181148766E+01 -3.681977002E+01 -5.865653136E+00  3.911026198E+01  7.725644944E-07  0.00000E+00  9.000E+00
#rwgt            1           1   4.8726045765596353E-002           5      347260           0
</event>
<event>
      5   9999  3.79277E-02  1.67683E+02 -1.00000E+00  1.14507E-01
      21    -1     0     0   502   501  0.000000000E+00  0.000000000E+00  1.065899825E+03  1.065899825E+03  0.000000000E+00  0.00000E+00  9.000E+00
      -3    -1     0     0     0   502  0.000000000E+00  0.000000000E+00 -1.117176150E+03  1.117176150E+03  0.000000000E+00  0.00000E+00  9.000E+00
      25     1     1     2     0     0 -1.082769618E+02 -8.894780747E+01  5.988505552E+02  6.276006695E+02  1.250000000E+02  0.00000E+00  9.000E+00
      25     1     1     2     0     0  2.750370417E+02  7.137493578E+01  3.919521950E+02  4.999912789E+02  1.250000000E+02  0.00000E+00  9.000E+00
      -3     1     1     2     0   501 -1.667600799E+02  1.757287168E+01 -1.042079076E+03  1.055484027E+03  1.525878906E-05  0.00000E+00  9.000E+00
#rwgt            1           1   3.8774697779510175E-002           5      347360           0
</event>
<event>
      5   9999  3.79277E-02  2.21518E+01 -1.00000E+00  1.62789E-01
      21    -1     0     0   511   501  0.000000000E+00  0.000000000E+00  3.588714864E+02  3.588714864E+02  0.000000000E+00  0.00000E+00  9.000E+00
      21    -1     0     0   501   502  0.000000000E+00  0.000000000E+00 -9.243490782E+01  9.243490782E+01  0.000000000E+00  0.00000E+00  9.000E+00
      25     1     1     2     0     0 -1.159579559E+01 -7.048103692E-01  2.269918086E+02  2.593939869E+02  1.250000000E+02  0.00000E+00  9.000E+00
      25     1     1     2     0     0 -3.285057881E+00  1.711408822E+01 -2.062981008E+01  1.278838250E+02  1.250000000E+02  0.00000E+00  9.000E+00
      21     1     1     2   511   502  1.488085347E+01 -1.640927785E+01  6.007458005E+01  6.402858243E+01  1.168007728E-06  0.00000E+00  9.000E+00
#rwgt            1           1   3.1810456209828315E-002           5      347404           0
</event>
<event>
      5   9999 -5.70157E-02  1.40256E+02 -1.00000E+00  1.17561E-01
      21    -1     0     0   502   501  0.000000000E+00  0.000000000E+00  1.273055107E+02  1.273055107E+02  0.000000000E+00  0.00000E+00  9.000E+00
       2    -1     0     0   501     0  0.000000000E+00  0.000000000E+00 -1.805296164E+03  1.805296164E+03  0.000000000E+00  0.00000E+00  9.000E+00
      25     1     1     2     0     0  2.374707419E+02 -2.995648496E+02 -5.255115271E+02  6.617543483E+02  1.250000000E+02  0.00000E+00  9.000E+00
      25     1     1     2     0     0 -1.070076192E+02  3.510547787E+02 -7.439790998E+02  8.389398006E+02  1.250000000E+02  0.00000E+00  9.000E+00
       2     1     1     2   502     0 -1.304631228E+02 -5.148992907E+01 -4.085000266E+02  4.319075259E+02  0.000000000E+00  0.00000E+00  9.000E+00
#rwgt            1           1 -0.94738971118948834                5      347604           0
</event>
<event>
      5   9999  3.79277E-02  1.43418E+01 -1.00000E+00  1.79239E-01
      21    -1     0     0   502   501  0.000000000E+00  0.000000000E+00  5.761473380E+02  5.761473380E+02  0.000000000E+00  0.00000E+00  9.000E+00
      21    -1     0     0   511   502  0.000000000E+00  0.000000000E+00 -3.054604286E+02  3.054604286E+02  0.000000000E+00  0.00000E+00  9.000E+00
      25     1     1     2     0     0 -2.743574802E+01 -2.862309437E+02  3.215392656E+02  4.491028532E+02  1.250000000E+02  0.00000E+00  9.000E+00
      25     1     1     2     0     0  2.786501294E+01  3.005663625E+02  5.010577831E+01  3.305331848E+02  1.250000000E+02  0.00000E+00  9.000E+00
      21     1     1     2   511   501 -4.292649129E-01 -1.433541879E+01 -1.009581346E+02  1.019717287E+02  0.000000000E+00  0.00000E+00  9.000E+00
#rwgt            1           1  0.12498545440899438                5      347694           0
</event>
<event>
      5   9999  3.79277E-02  3.45715E+00 -1.00000E+00  2.79347E-01
      21    -1     0     0   502   501  0.000000000E+00  0.000000000E+00  1.022642821E+03  1.022642821E+03  0.000000000E+00  0.00000E+00  9.000E+00
      21    -1     0     0   501   512  0.000000000E+00  0.000000000E+00 -3.240809574E+01  3.240809574E+01  0.000000000E+00  0.00000E+00  9.000E+00
      25     1     1     2     0     0 -1.091653101E+01 -5.728959863E+01  1.533743838E+02  2.062764417E+02  1.250000000E+02  0.00000E+00  9.000E+00
      25     1     1     2     0     0  1.120252701E+01  5.384429889E+01  8.291971551E+02  8.403675548E+02  1.250000000E+02  0.00000E+00  9.000E+00
      21     1     1     2   502   512 -2.859960032E-01  3.445299742E+00  7.663186230E+00  8.406920199E+00  2.064765462E-07  0.00000E+00  9.000E+00
#rwgt            1           1   3.6079397111106602E-002           5      348037           0
</event>
<event>
      5   9999  3.79277E-02  3.05886E+01 -1.00000E+00  1.52456E-01
      21    -1     0     0   502   501  0.000000000E+00  0.000000000E+00  1.377999039E+02  1.377999039E+02  0.000000000E+00  0.00000E+00  9.000E+00
      21    -1     0     0   501   511  0.000000000E+00  0.000000000E+00 -9.922441071E+02  9.922441071E+02  0.000000000E+00  0.00000E+00  9.000E+00
      25     1     1     2     0     0  8.702488111E+01  2.553080937E+00 -4.564450561E+02  4.811932433E+02  1.250000000E+02  0.00000E+00  9.000E+00
      25     1     1     2     0     0 -8.294615653E+01  2.776234667E+01  7.835952121E+01  1.715110123E+02  1.250000000E+02  0.00000E+00  9.000E+00
      21     1     1     2   502   511 -4.078724584E+00 -3.031542760E+01 -4.763586683E+02  4.773397554E+02  7.629394531E-06  0.00000E+00  9.000E+00
#rwgt            1           1   3.2967308027955701E-002           5      348545           0
</event>
<event>
      5   9999  3.79277E-02  6.94870E+01 -1.00000E+00  1.31383E-01
       2    -1     0     0   502     0  0.000000000E+00  0.000000000E+00  2.059022683E+03  2.059022683E+03  0.000000000E+00  0.00000E+00  9.000E+00
      21    -1     0     0   501   502  0.000000000E+00  0.000000000E+00 -9.084607888E+01  9.084607888E+01  0.000000000E+00  0.00000E+00  9.000E+00
      25     1     1     2     0     0 -2.758174585E+01  6.936408228E+01  2.761023475E+02  3.121372052E+02  1.250000000E+02  0.00000E+00  9.000E+00
      25     1     1     2     0     0  9.664949668E+01 -6.174239385E+01  2.767703410E+01  1.718844572E+02  1.250000000E+02  0.00000E+00  9.000E+00
       2     1     1     2   501     0 -6.906775083E+01 -7.621688430E+00  1.664397223E+03  1.665847099E+03  0.000000000E+00  0.00000E+00  9.000E+00
#rwgt            1           1   4.7522989455192816E-002           5      348739           0
</event>
<event>
      5   9999  3.79277E-02  1.50151E+01 -1.00000E+00  1.77342E-01
      21    -1     0     0   511   501  0.000000000E+00  0.000000000E+00  4.865655141E+02  4.865655141E+02  0.000000000E+00  0.00000E+00  9.000E+00
      21    -1     0     0   501   502  0.000000000E+00  0.000000000E+00 -2.028748050E+02  2.028748050E+02  0.000000000E+00  0.00000E+00  9.000E+00
      25     1     1     2     0     0 -9.967909199E+00  1.539114712E+02 -8.209265728E+01  2.148308743E+02  1.250000000E+02  0.00000E+00  9.000E+00
      25     1     1     2     0     0  1.601073887E+01 -1.401660329E+02  1.097015412E+02  2.180878004E+02  1.250000000E+02  0.00000E+00  9.000E+00
      21     1     1     2   511   502 -6.042829669E+00 -1.374543831E+01  2.560818251E+02  2.565216444E+02  3.814697266E-06  0.00000E+00  9.000E+00
#rwgt            1           1   2.1764613413314943E-002           5      348912           0
</event>
<event>
      5   9999  3.79277E-02  3.96282E+01 -1.00000E+00  1.45092E-01
      21    -1     0     0   502   501  0.000000000E+00  0.000000000E+00  1.533601707E+02  1.533601707E+02  0.000000000E+00  0.00000E+00  9.000E+00
       1    -1     0     0   501     0  0.000000000E+00  0.000000000E+00 -4.771178440E+02  4.771178440E+02  0.000000000E+00  0.00000E+00  9.000E+00
      25     1     1     2     0     0  9.297621388E+01 -1.942925289E+01  8.644493647E+01  1.792199745E+02  1.250000000E+02  0.00000E+00  9.000E+00
      25     1     1     2     0     0 -5.361774169E+01  2.404514072E+01 -2.438590954E+02  2.802593253E+02  1.250000000E+02  0.00000E+00  9.000E+00
       1     1     1     2   502     0 -3.935847220E+01 -4.615887830E+00 -1.663435143E+02  1.709987150E+02  1.907348633E-06  0.00000E+00  9.000E+00
#rwgt            1           1   4.4484086157842342E-002           5      349114           0
</event>
<event>
      5   9999  3.79277E-02  1.12662E+02 -1.00000E+00  1.21543E-01
      21    -1     0     0   502   501  0.000000000E+00  0.000000000E+00  1.069193421E+03  1.069193421E+03  0.000000000E+00  0.00000E+00  9.000E+00
      21    -1     0     0   511   502  0.000000000E+00  0.000000000E+00 -5.196416886E+01  5.196416886E+01  0.000000000E+00  0.00000E+00  9.000E+00
      25     1     1     2     0     0  5.945420598E+01  1.003286552E+02  6.120239383E+02  6.354517627E+02  1.250000000E+02  0.00000E+00  9.000E+00
      25     1     1     2     0     0  4.715101935E+01 -6.388569387E+01  1.738070793E+02  2.283385673E+02  1.250000000E+02  0.00000E+00  9.000E+00
      21     1     1     2   511   501 -1.066052253E+02 -3.644296136E+01  2.313982348E+02  2.573672601E+02  3.814697266E-06  0.00000E+00  9.000E+00
#rwgt            1           1   3.8436350807729065E-002           5      349225           0
</event>
<event>
      5   9999  3.79277E-02  1.35923E+01 -1.00000E+00  1.81513E-01
      21    -1     0     0   512   501  0.000000000E+00  0.000000000E+00  5.924815989E+02  5.924815989E+02  0.000000000E+00  0.00000E+00  9.000E+00
      21    -1     0     0   501   502  0.000000000E+00  0.000000000E+00 -1.087124356E+02  1.087124356E+02  0.000000000E+00  0.00000E+00  9.000E+00
      25     1     1     2     0     0  1.227654296E+02  2.011789913E+01  4.565797908E+02  4.894549887E+02  1.250000000E+02  0.00000E+00  9.000E+00
      25     1     1     2     0     0 -1.164477209E+02 -8.083029616E+00 -1.082298867E+01  1.713696127E+02  1.250000000E+02  0.00000E+00  9.000E+00
      21     1     1     2   512   502 -6.317708785E+00 -1.203486951E+01  3.801236126E+01  4.036943320E+01  0.000000000E+00  0.00000E+00  9.000E+00
#rwgt            1           1   3.4936297263640261E-002           5      349271           0
</event>
<event>
      5   9999  3.79277E-02  4.43618E+01 -1.00000E+00  1.42107E-01
      21    -1     0     0   511   501  0.000000000E+00  0.000000000E+00  1.067297935E+02  1.067297935E+02  0.000000000E+00  0.00000E+00  9.000E+00
      21    -1     0     0   501   502  0.000000000E+00  0.000000000E+00 -1.029585149E+03  1.029585149E+03  0.000000000E+00  0.00000E+00  9.000E+00
      25     1     1     2     0     0 -1.117333843E+01 -6.947159410E+01 -2.751891197E-01  1.434441411E+02  1.250000000E+02  0.00000E+00  9.000E+00
      25     1     1     2     0     0 -7.987433147E+00  1.094820183E+02 -9.326581451E+02  9.473786608E+02  1.250000000E+02  0.00000E+00  9.000E+00
      21     1     1     2   511   502  1.916077158E+01 -4.001042417E+01  1.007797866E+01  4.549214068E+01  7.633118912E-07  0.00000E+00  9.000E+00
#rwgt            1           1   3.4967999855285828E-002           5      349446           0
</event>
<event>
      5   9999  3.79277E-02  9.53503E+01 -1.00000E+00  1.24765E-01
      21    -1     0     0   502   501  0.000000000E+00  0.000000000E+00  8.430640561E+02  8.430640561E+02  0.000000000E+00  0.00000E+00  9.000E+00
      21    -1     0     0   512   502  0.000000000E+00  0.000000000E+00 -2.438415323E+02  2.438415323E+02  0.000000000E+00  0.00000E+00  9.000E+00
      25     1     1     2     0     0  7.286370792E+01  3.289912555E+01  6.940660246E+02  7.097493352E+02  1.250000000E+02  0.00000E+00  9.000E+00
      25     1     1     2     0     0 -7.058532519E+01  6.242398528E+01  8.165045868E+01  1.765526535E+02  1.250000000E+02  0.00000E+00  9.000E+00
      21     1     1     2   512   501 -2.278382735E+00 -9.532311084E+01 -1.764939594E+02  2.006035997E+02  2.697398305E-06  0.00000E+00  9.000E+00
#rwgt            1           1   3.6133247366833342E-002           5      349562           0
</event>
<event>
      5   9999  3.79277E-02  9.83258E+01 -1.00000E+00  1.24159E-01
      21    -1     0     0   502   511  0.000000000E+00  0.000000000E+00  4.227699181E+02  4.227699181E+02  0.000000000E+00  0.00000E+00  9.000E+00
      21    -1     0     0   501   502  0.000000000E+00  0.000000000E+00 -3.078267521E+02  3.078267521E+02  0.000000000E+00  0.00000E+00  9.000E+00
      25     1     1     2     0     0 -8.884354193E+01  8.682442911E+01 -1.992026506E+02  2.659668259E+02  1.250000000E+02  0.00000E+00  9.000E+00
      25     1     1     2     0     0  6.927771197E+01 -1.831838305E+02  2.718101218E+02  3.575772077E+02  1.250000000E+02  0.00000E+00  9.000E+00
      21     1     1     2   501   511  1.956582996E+01  9.635940143E+01  4.233569487E+01  1.070526366E+02  1.348699152E-06  0.00000E+00  9.000E+00
#rwgt            1           1   4.0650556541661477E-002           5      349669           0
</event>
<event>
      5   9999  3.79277E-02  4.74495E+01 -1.00000E+00  1.40385E-01
      -1    -1     0     0     0   501  0.000000000E+00  0.000000000E+00  7.785592676E+02  7.785592676E+02  0.000000000E+00  0.00000E+00  9.000E+00
      21    -1     0     0   501   502  0.000000000E+00  0.000000000E+00 -7.048083010E+01  7.048083010E+01  0.000000000E+00  0.00000E+00  9.000E+00
      25     1     1     2     0     0 -1.141044990E+02 -3.864689114E+00  1.153243987E+02  2.048401559E+02  1.250000000E+02  0.00000E+00  9.000E+00
      25     1     1     2     0     0  1.387403862E+02  4.441744748E+01  5.407129441E+02  5.737746006E+02  1.250000000E+02  0.00000E+00  9.000E+00
      -1     1     1     2     0   502 -2.463588723E+01 -4.055275836E+01  5.204109475E+01  7.042534127E+01  1.168007728E-06  0.00000E+00  9.000E+00
#rwgt            1           1   1.7723159266177822E-002           5      349875           0
</event>
<event>
      5   9999  3.79277E-02  8.43843E+00 -1.00000E+00  2.04686E-01
      21    -1     0     0   502   511  0.000000000E+00  0.000000000E+00  1.448257767E+03  1.448257767E+03  0.000000000E+00  0.00000E+00  9.000E+00
      21    -1     0     0   501   502  0.000000000E+00  0.000000000E+00 -4.470646057E+01  4.470646057E+01  0.000000000E+00  0.00000E+00  9.000E+00
      25     1     1     2     0     0  1.091795845E+02 -4.695277569E+01  1.612350855E+02  2.361069622E+02  1.250000000E+02  0.00000E+00  9.000E+00
      25     1     1     2     0     0 -1.094399042E+02  3.851836157E+01  1.003277148E+03  1.017669295E+03  1.250000000E+02  0.00000E+00  9.000E+00
      21     1     1     2   501   511  2.603197083E-01  8.434414119E+00  2.390390725E+02  2.391879707E+02  3.814697266E-06  0.00000E+00  9.000E+00
#rwgt            1           1   4.0733144079737237E-002           5      349960           0
</event>
<event>
      5   9999  3.79277E-02  7.30503E+01 -1.00000E+00  1.30289E-01
      21    -1     0     0   502   512  0.000000000E+00  0.000000000E+00  1.014027233E+02  1.014027233E+02  0.000000000E+00  0.00000E+00  9.000E+00
      21    -1     0     0   501   502  0.000000000E+00  0.000000000E+00 -1.419389999E+03  1.419389999E+03  0.000000000E+00  0.00000E+00  9.000E+00
      25     1     1     2     0     0 -1.693804326E+02  2.396272743E+02 -8.671480625E+02  9.239489834E+02  1.250000000E+02  0.00000E+00  9.000E+00
      25     1     1     2     0     0  1.272854790E+02 -1.799250609E+02 -4.580287970E+02  5.234405407E+02  1.250000000E+02  0.00000E+00  9.000E+00
      21     1     1     2   501   512  4.209495365E+01 -5.970221337E+01  7.189583882E+00  7.340319830E+01  1.177097419E-06  0.00000E+00  9.000E+00
#rwgt            1           1   3.7589724622829258E-002           5      350404           0
</event>
<event>
      5   9999  3.79277E-02  3.15161E+02 -1.00000E+00  1.04901E-01
      21    -1     0     0   502   501  0.000000000E+00  0.000000000E+00  1.498940067E+03  1.498940067E+03  0.000000000E+00  0.00000E+00  9.000E+00
      21    -1     0     0   501   511  0.000000000E+00  0.000000000E+00 -2.872945071E+02  2.872945071E+02  0.000000000E+00  0.00000E+00  9.000E+00
      25     1     1     2     0     0 -2.691206565E+02  1.112167146E+02  6.897303805E+02  7.590441905E+02  1.250000000E+02  0.00000E+00  9.000E+00
      25     1     1     2     0     0  1.081876483E+02  1.597572699E+02  6.481306534E+02  6.876956422E+02  1.250000000E+02  0.00000E+00  9.000E+00
      21     1     1     2   502   511  1.609330082E+02 -2.709739845E+02 -1.262154741E+02  3.394947412E+02  5.046370146E-06  0.00000E+00  9.000E+00
#rwgt            1           1   2.8696685632744492E-002           5      350542           0
</event>
<event>
      5   9999  3.79277E-02  8.33871E+01 -1.00000E+00  1.27484E-01
      21    -1     0     0   502   501  0.000000000E+00  0.000000000E+00  2.984538446E+02  2.984538446E+02  0.000000000E+00  0.00000E+00  9.000E+00
       2    -1     0     0   501     0  0.000000000E+00  0.000000000E+00 -6.160303925E+02  6.160303925E+02  0.000000000E+00  0.00000E+00  9.000E+00
      25     1     1     2     0     0 -1.086705183E+02 -1.435286531E+02  1.842936842E+02  2.863545317E+02  1.250000000E+02  0.00000E+00  9.000E+00
      25     1     1     2     0     0  1.771321431E+02  9.592175508E+01 -1.856817185E+02  3.011303369E+02  1.250000000E+02  0.00000E+00  9.000E+00
       2     1     1     2   502     0 -6.846162484E+01  4.760689800E+01 -3.161885137E+02  3.269993685E+02  0.000000000E+00  0.00000E+00  9.000E+00
#rwgt            1           1   3.7943577622619643E-002           5      350679           0
</event>
<event>
      5   9999  3.79277E-02  8.06139E+00 -1.00000E+00  2.07237E-01
      21    -1     0     0   511   501  0.000000000E+00  0.000000000E+00  1.636994372E+02  1.636994372E+02  0.000000000E+00  0.00000E+00  9.000E+00
      21    -1     0     0   501   502  0.000000000E+00  0.000000000E+00 -4.252635168E+02  4.252635168E+02  0.000000000E+00  0.00000E+00  9.000E+00
      25     1     1     2     0     0  2.828400766E+01  1.292555387E+02 -1.172055572E+02  2.164927759E+02  1.250000000E+02  0.00000E+00  9.000E+00
      25     1     1     2     0     0 -2.638406665E+01 -1.214212387E+02 -2.281456405E+02  2.882961489E+02  1.250000000E+02  0.00000E+00  9.000E+00
      21     1     1     2   511   502 -1.899941011E+00 -7.834300010E+00  8.378711808E+01  8.417402919E+01  1.348699152E-06  0.00000E+00  9.000E+00
#rwgt            1           1   3.5689601978426709E-002           5      350926           0
</event>
<event>
      5   9999  3.79277E-02  2.99510E+01 -1.00000E+00  1.53089E-01
      21    -1     0     0   512   501  0.000000000E+00  0.000000000E+00  9.003462313E+01  9.003462313E+01  0.000000000E+00  0.00000E+00  9.000E+00
      21    -1     0     0   501   502  0.000000000E+00  0.000000000E+00 -1.106812547E+03  1.106812547E+03  0.000000000E+00  0.00000E+00  9.000E+00
      25     1     1     2     0     0 -6.505738763E+01 -1.507419823E+02 -8.370139031E+02  8.620747548E+02  1.250000000E+02  0.00000E+00  9.000E+00
      25     1     1     2     0     0  4.694996657E+01  1.745995877E+02 -2.011639327E+02  2.979618150E+02  1.250000000E+02  0.00000E+00  9.000E+00
      21     1     1     2   512   502  1.810742106E+01 -2.385760538E+01  2.139991220E+01  3.681060002E+01  1.283923342E-06  0.00000E+00  9.000E+00
#rwgt            1           1   3.9401382615524776E-002           5      351186           0
</event>
<event>
      5   9999  3.79277E-02  1.55099E+01 -1.00000E+00  1.76027E-01
      21    -1     0     0   502   501  0.000000000E+00  0.000000000E+00  1.616978648E+02  1.616978648E+02  0.000000000E+00  0.00000E+00  9.000E+00
      21    -1     0     0   501   511  0.000000000E+00  0.000000000E+00 -5.196271922E+02  5.196271922E+02  0.000000000E+00  0.00000E+00  9.000E+00
      25     1     1     2     0     0  4.257896337E+01  2.062956783E+01 -3.477242608E+02  3.725261182E+02  1.250000000E+02  0.00000E+00  9.000E+00
      25     1     1     2     0     0 -3.059060860E+01 -3.047008346E+01  1.194578819E+02  1.782116631E+02  1.250000000E+02  0.00000E+00  9.000E+00
      21     1     1     2   502   511 -1.198835477E+01  9.840515634E+00 -1.296629485E+02  1.305872759E+02  1.907348633E-06  0.00000E+00  9.000E+00
#rwgt            1           1   2.7514706960909647E-002           5      351393           0
</event>
<event>
      5   9999  3.79277E-02  2.83302E+01 -1.00000E+00  1.54788E-01
      21    -1     0     0   502   512  0.000000000E+00  0.000000000E+00  4.638918467E+02  4.638918467E+02  0.000000000E+00  0.00000E+00  9.000E+00
      21    -1     0     0   501   502  0.000000000E+00  0.000000000E+00 -1.061098453E+02  1.061098453E+02  0.000000000E+00  0.00000E+00  9.000E+00
      25     1     1     2     0     0 -1.453460093E+02 -1.051822737E+02  1.889783805E+02  2.890096909E+02  1.250000000E+02  0.00000E+00  9.000E+00
      25     1     1     2     0     0  1.212438786E+02  9.029316160E+01  1.440157807E+02  2.433484708E+02  1.250000000E+02  0.00000E+00  9.000E+00
      21     1     1     2   501   512  2.410213066E+01  1.488911211E+01  2.478784011E+01  3.764353037E+01  0.000000000E+00  0.00000E+00  9.000E+00
#rwgt            1           1   3.3970694314217904E-002           5      351594           0
</event>
<event>
      5   9999  3.79277E-02  2.15290E+01 -1.00000E+00  1.63772E-01
      21    -1     0     0   502   501  0.000000000E+00  0.000000000E+00  4.497904125E+02  4.497904125E+02  0.000000000E+00  0.00000E+00  9.000E+00
      21    -1     0     0   511   502  0.000000000E+00  0.000000000E+00 -1.322421737E+02  1.322421737E+02  0.000000000E+00  0.00000E+00  9.000E+00
      25     1     1     2     0     0  1.304275100E+02  6.348672211E+01 -6.789746490E+00  1.916063671E+02  1.250000000E+02  0.00000E+00  9.000E+00
      25     1     1     2     0     0 -1.090646670E+02 -6.615619021E+01  3.227122696E+02  3.688359419E+02  1.250000000E+02  0.00000E+00  9.000E+00
      21     1     1     2   511   501 -2.136284301E+01  2.669468094E+00  1.625715760E+00  2.159027728E+01  5.701519987E-07  0.00000E+00  9.000E+00
#rwgt            1           1   3.1397575880743829E-002           5      351770           0
</event>
<event>
      5   9999  3.79277E-02  2.69116E+01 -1.00000E+00  1.56391E-01
      21    -1     0     0   502   512  0.000000000E+00  0.000000000E+00  2.325870394E+02  2.325870394E+02  0.000000000E+00  0.00000E+00  9.000E+00
      21    -1     0     0   501   502  0.000000000E+00  0.000000000E+00 -2.459282383E+02  2.459282383E+02  0.000000000E+00  0.00000E+00  9.000E+00
      25     1     1     2     0     0  6.621712719E+01  8.280078934E+01  9.841527069E+01  1.911837968E+02  1.250000000E+02  0.00000E+00  9.000E+00
      25     1     1     2     0     0 -3.998090955E+01 -8.879217471E+01 -1.643238789E+02  2.282758432E+02  1.250000000E+02  0.00000E+00  9.000E+00
      21     1     1     2   501   512 -2.623621764E+01  5.991385367E+00  5.256740930E+01  5.905563762E+01  6.743495762E-07  0.00000E+00  9.000E+00
#rwgt            1           1   2.9297881089154435E-002           5      352187           0
</event>
<event>
      5   9999  3.79277E-02  1.25518E+02 -1.00000E+00  1.19545E-01
      21    -1     0     0   502   501  0.000000000E+00  0.000000000E+00  8.031358038E+01  8.031358038E+01  0.000000000E+00  0.00000E+00  9.000E+00
      21    -1     0     0   511   502  0.000000000E+00  0.000000000E+00 -1.140898644E+03  1.140898644E+03  0.000000000E+00  0.00000E+00  9.000E+00
      25     1     1     2     0     0 -5.535936897E+01 -2.043437470E+02 -2.298072686E+02  3.365373789E+02  1.250000000E+02  0.00000E+00  9.000E+00
      25     1     1     2     0     0 -3.882749809E+01  1.213766018E+02 -4.951543985E+02  5.263484896E+02  1.250000000E+02  0.00000E+00  9.000E+00
      21     1     1     2   511   501  9.418686706E+01  8.296714524E+01 -3.356233966E+02  3.583263561E+02  0.000000000E+00  0.00000E+00  9.000E+00
#rwgt            2          11   1.9582180765134486E-003           5      352356           0
</event>
<event>
      5   9999  3.79277E-02  1.23260E+02 -1.00000E+00  1.19876E-01
      21    -1     0     0   502   512  0.000000000E+00  0.000000000E+00  5.421982170E+01  5.421982170E+01  0.000000000E+00  0.00000E+00  9.000E+00
      21    -1     0     0   501   502  0.000000000E+00  0.000000000E+00 -1.956603173E+03  1.956603173E+03  0.000000000E+00  0.00000E+00  9.000E+00
      25     1     1     2     0     0  1.067034979E+02 -4.028473796E+01 -1.092470735E+03  1.105497988E+03  1.250000000E+02  0.00000E+00  9.000E+00
      25     1     1     2     0     0 -2.224207178E+02 -2.170913891E+00 -6.797667782E+02  7.260740742E+02  1.250000000E+02  0.00000E+00  9.000E+00
      21     1     1     2   501   512  1.157172200E+02  4.245565185E+01 -1.301458389E+02  1.792509324E+02  3.303624740E-06  0.00000E+00  9.000E+00
#rwgt            1           1   2.9625588201223484E-002           5      352436           0
</event>
<event>
      5   9999  3.79277E-02  3.97691E+01 -1.00000E+00  1.44996E-01
      21    -1     0     0   502   501  0.000000000E+00  0.000000000E+00  9.391269662E+02  9.391269662E+02  0.000000000E+00  0.00000E+00  9.000E+00
      21    -1     0     0   511   502  0.000000000E+00  0.000000000E+00 -1.205538425E+02  1.205538425E+02  0.000000000E+00  0.00000E+00  9.000E+00
      25     1     1     2     0     0 -1.922995582E+02  9.857586348E+01  7.200654814E+01  2.598196758E+02  1.250000000E+02  0.00000E+00  9.000E+00
      25     1     1     2     0     0  1.585823976E+02 -1.196646477E+02  7.016502823E+02  7.398689907E+02  1.250000000E+02  0.00000E+00  9.000E+00
      21     1     1     2   511   501  3.371716057E+01  2.108878422E+01  4.491629319E+01  5.999214224E+01  1.168007728E-06  0.00000E+00  9.000E+00
#rwgt            1           1   3.0504485471729098E-002           5      352567           0
</event>
<event>
      5   9999  3.79277E-02  5.11612E+01 -1.00000E+00  1.38509E-01
      21    -1     0     0   502   512  0.000000000E+00  0.000000000E+00  1.429851447E+03  1.429851447E+03  0.000000000E+00  0.00000E+00  9.000E+00
      21    -1     0     0   501   502  0.000000000E+00  0.000000000E+00 -7.992855559E+01  7.992855559E+01  0.000000000E+00  0.00000E+00  9.000E+00
      25     1     1     2     0     0 -2.424604600E+02 -5.463664473E+01  6.997161468E+02  7.529939732E+02  1.250000000E+02  0.00000E+00  9.000E+00
      25     1     1     2     0     0  2.886037984E+02  3.254000996E+01  4.488914674E+02  5.490715384E+02  1.250000000E+02  0.00000E+00  9.000E+00
      21     1     1     2   501   512 -4.614333844E+01  2.209663477E+01  2.013152776E+02  2.077144915E+02  3.814697266E-06  0.00000E+00  9.000E+00
#rwgt            1           1   3.1661570563025564E-002           5      352716           0
</event>
<event>
      5   9999 -3.79277E-02  1.10482E+02 -1.00000E+00  1.21912E-01
      21    -1     0     0   502   511  0.000000000E+00  0.000000000E+00  2.938802680E+02  2.938802680E+02  0.000000000E+00  0.00000E+00  9.000E+00
      21    -1     0     0   501   502  0.000000000E+00  0.000000000E+00 -8.697145661E+02  8.697145661E+02  0.000000000E+00  0.00000E+00  9.000E+00
      25     1     1     2     0     0 -7.081378170E+01 -7.088680121E+01 -5.228913754E+02  5.468819989E+02  1.250000000E+02  0.00000E+00  9.000E+00
      25     1     1     2     0     0  1.643111591E+02  1.297461086E+02 -2.757020203E+02  3.680608831E+02  1.250000000E+02  0.00000E+00  9.000E+00
      21     1     1     2   501   511 -9.349737737E+01 -5.885930738E+01  2.227590977E+02  2.486519520E+02  0.000000000E+00  0.00000E+00  9.000E+00
#rwgt            1           1  -3.9948663107153809E-002           5      352960           0
</event>
<event>
      5   9999  3.79277E-02  1.48535E+02 -1.00000E+00  1.16563E-01
      21    -1     0     0   502   501  0.000000000E+00  0.000000000E+00  3.822676002E+02  3.822676002E+02  0.000000000E+00  0.00000E+00  9.000E+00
      21    -1     0     0   512   502  0.000000000E+00  0.000000000E+00 -5.092307277E+02  5.092307277E+02  0.000000000E+00  0.00000E+00  9.000E+00
      25     1     1     2     0     0 -1.149745940E+02 -1.962176081E+02  1.397731858E+02  2.947576130E+02  1.250000000E+02  0.00000E+00  9.000E+00
      25     1     1     2     0     0  1.278680105E+02  4.824341775E+01  9.321682877E+01  2.073452016E+02  1.250000000E+02  0.00000E+00  9.000E+00
      21     1     1     2   512   501 -1.289341658E+01  1.479741903E+02 -3.599531421E+02  3.893955132E+02  6.607249480E-06  0.00000E+00  9.000E+00
#rwgt            1           1   2.3762924336918411E-002           5      353171           0
</event>
<event>
      5   9999  3.79277E-02  6.11098E+01 -1.00000E+00  1.34279E-01
      21    -1     0     0   502   511  0.000000000E+00  0.000000000E+00  2.635308847E+02  2.635308847E+02  0.000000000E+00  0.00000E+00  9.000E+00
      21    -1     0     0   501   502  0.000000000E+00  0.000000000E+00 -2.305794768E+02  2.305794768E+02  0.000000000E+00  0.00000E+00  9.000E+00
      25     1     1     2     0     0  1.756420817E+02 -2.532899415E+01  4.692527206E+01  2.220780943E+02  1.250000000E+02  0.00000E+00  9.000E+00
      25     1     1     2     0     0 -1.161056092E+02  1.155175689E+01 -7.404855502E+01  1.863387884E+02  1.250000000E+02  0.00000E+00  9.000E+00
      21     1     1     2   501   511 -5.953647256E+01  1.377723726E+01  6.007469089E+01  8.569347884E+01  0.000000000E+00  0.00000E+00  9.000E+00
#rwgt            2          11   1.9077040024485666E-003           5      353434           0
</event>
<event>
      5   9999  3.79277E-02  6.41943E+01 -1.00000E+00  1.33154E-01
      21    -1     0     0   502   501  0.000000000E+00  0.000000000E+00  8.989608071E+02  8.989608071E+02  0.000000000E+00  0.00000E+00  9.000E+00
      21    -1     0     0   512   502  0.000000000E+00  0.000000000E+00 -1.519607487E+02  1.519607487E+02  0.000000000E+00  0.00000E+00  9.000E+00
      25     1     1     2     0     0  1.291941502E+02  6.619539628E+00  7.437298951E+02  7.651758645E+02  1.250000000E+02  0.00000E+00  9.000E+00
      25     1     1     2     0     0 -1.344576522E+02 -7.059768586E+01  5.395014680E+01  2.039571323E+02  1.250000000E+02  0.00000E+00  9.000E+00
      21     1     1     2   512   501  5.263501963E+00  6.397814623E+01 -5.067998345E+01  8.178855892E+01  1.651812370E-06  0.00000E+00  9.000E+00
#rwgt            1           1   4.5112376492571986E-002           5      353544           0
</event>
<event>
      5   9999  3.79277E-02  9.72922E+01 -1.00000E+00  1.24367E-01
      21    -1     0     0   502   501  0.000000000E+00  0.000000000E+00  7.677872002E+02  7.677872002E+02  0.000000000E+00  0.00000E+00  9.000E+00
      21    -1     0     0   511   502  0.000000000E+00  0.000000000E+00 -1.106414183E+02  1.106414183E+02  0.000000000E+00  0.00000E+00  9.000E+00
      25     1     1     2     0     0 -1.346892550E+02  1.012337528E+02  2.063779992E+02  2.942895626E+02  1.250000000E+02  0.00000E+00  9.000E+00
      25     1     1     2     0     0  2.200498583E+02 -5.455033663E+01  3.941602802E+02  4.715771473E+02  1.250000000E+02  0.00000E+00  9.000E+00
      21     1     1     2   511   501 -8.536060323E+01 -4.668341620E+01  5.660750248E+01  1.125619086E+02  6.743495762E-07  0.00000E+00  9.000E+00
#rwgt            1           1   4.4727591528389607E-002           5      353747           0
</event>
<event>
      5   9999  3.79277E-02  1.58405E+01 -1.00000E+00  1.75182E-01
      21    -1     0     0   512   501  0.000000000E+00  0.000000000E+00  1.249275708E+02  1.249275708E+02  0.000000000E+00  0.00000E+00  9.000E+00
      21    -1     0     0   501   502  0.000000000E+00  0.000000000E+00 -2.944294875E+02  2.944294875E+02  0.000000000E+00  0.00000E+00  9.000E+00
      25     1     1     2     0     0 -1.008816224E+02 -8.055827529E+01 -1.358488428E+02  2.252701612E+02  1.250000000E+02  0.00000E+00  9.000E+00
      25     1     1     2     0     0  1.024106685E+02  6.479171723E+01 -3.677444653E+01  1.779417646E+02  1.250000000E+02  0.00000E+00  9.000E+00
      21     1     1     2   512   502 -1.529046196E+00  1.576655805E+01  3.121372651E+00  1.614513247E+01  2.457562462E-07  0.00000E+00  9.000E+00
#rwgt            1           1   3.8792360385507312E-002           5      353807           0
</event>
<event>
      5   9999  3.79277E-02  2.61347E+01 -1.00000E+00  1.57320E-01
      21    -1     0     0   511   501  0.000000000E+00  0.000000000E+00  5.592894961E+02  5.592894961E+02  0.000000000E+00  0.00000E+00  9.000E+00
      21    -1     0     0   501   502  0.000000000E+00  0.000000000E+00 -1.596416674E+02  1.596416674E+02  0.000000000E+00  0.00000E+00  9.000E+00
      25     1     1     2     0     0  1.050153358E+02  4.304601142E+01 -8.090687743E+01  1.872220678E+02  1.250000000E+02  0.00000E+00  9.000E+00
      25     1     1     2     0     0 -1.048857694E+02 -1.691162179E+01  2.458729653E+02  2.955766273E+02  1.250000000E+02  0.00000E+00  9.000E+00
      21     1     1     2   511   502 -1.295664509E-01 -2.613438963E+01  2.346817409E+02  2.361324683E+02  2.697398305E-06  0.00000E+00  9.000E+00
#rwgt            1           1   3.4850613400414357E-002           5      353971           0
</event>
<event>
      5   9999  3.79277E-02  3.10441E+01 -1.00000E+00  1.52015E-01
      21    -1     0     0   502   501  0.000000000E+00  0.000000000E+00  2.640378969E+02  2.640378969E+02  0.000000000E+00  0.00000E+00  9.000E+00
      21    -1     0     0   501   512  0.000000000E+00  0.000000000E+00 -1.818538737E+02  1.818538737E+02  0.000000000E+00  0.00000E+00  9.000E+00
      25     1     1     2     0     0  1.145652318E+02 -1.191662464E+02  2.454473234E+01  2.086941075E+02  1.250000000E+02  0.00000E+00  9.000E+00
      25     1     1     2     0     0 -1.044145554E+02  8.982853452E+01  7.622589121E+01  2.010148041E+02  1.250000000E+02  0.00000E+00  9.000E+00
      21     1     1     2   502   512 -1.015067638E+01  2.933771191E+01 -1.858660037E+01  3.618285899E+01  2.384185791E-07  0.00000E+00  9.000E+00
#rwgt            1           1   3.3330542059679752E-002           5      354142           0
</event>
<event>
      5   9999  3.79277E-02  3.31354E+01 -1.00000E+00  1.50101E-01
      21    -1     0     0   502   501  0.000000000E+00  0.000000000E+00  5.863604240E+02  5.863604240E+02  0.000000000E+00  0.00000E+00  9.000E+00
      -4    -1     0     0     0   502  0.000000000E+00  0.000000000E+00 -1.459942071E+02  1.459942071E+02  0.000000000E+00  0.00000E+00  9.000E+00
      25     1     1     2     0     0 -6.661440784E-01 -8.560515118E+01  4.923271418E+02  5.151113474E+02  1.250000000E+02  0.00000E+00  9.000E+00
      25     1     1     2     0     0 -1.453952002E+01  5.616470059E+01  1.882360140E+01  1.390870203E+02  1.250000000E+02  0.00000E+00  9.000E+00
      -4     1     1     2     0   501  1.520566410E+01  2.944045059E+01 -7.078452629E+01  7.815626344E+01  1.348699152E-06  0.00000E+00  9.000E+00
#rwgt            1           1   3.2266927306460351E-002           5      354439           0
</event>
<event>
      5   9999  3.79277E-02  6.20314E+01 -1.00000E+00  1.33935E-01
      21    -1     0     0   502   501  0.000000000E+00  0.000000000E+00  2.489364906E+02  2.489364906E+02  0.000000000E+00  0.00000E+00  9.000E+00
      21    -1     0     0   511   502  0.000000000E+00  0.000000000E+00 -5.005674055E+02  5.005674055E+02  0.000000000E+00  0.00000E+00  9.000E+00
      25     1     1     2     0     0 -3.087804352E+01  4.302748585E+01  9.851588776E+01  1.677355009E+02  1.250000000E+02  0.00000E+00  9.000E+00
      25     1     1     2     0     0 -7.559919707E+00 -9.171440876E+01  6.040214679E+01  1.665596124E+02  1.250000000E+02  0.00000E+00  9.000E+00
      21     1     1     2   511   501  3.843796323E+01  4.868692291E+01 -4.105489495E+02  4.152087829E+02  0.000000000E+00  0.00000E+00  9.000E+00
#rwgt            1           1   5.5638427774302147E-002           5      354600           0
</event>
<event>
      5   9999  3.79277E-02  5.62129E+01 -1.00000E+00  1.36234E-01
      -3    -1     0     0     0   501  0.000000000E+00  0.000000000E+00  1.763485238E+02  1.763485238E+02  0.000000000E+00  0.00000E+00  9.000E+00
      21    -1     0     0   501   502  0.000000000E+00  0.000000000E+00 -3.946276065E+02  3.946276065E+02  0.000000000E+00  0.00000E+00  9.000E+00
      25     1     1     2     0     0  6.325050019E+01  1.321582307E+02 -1.902612630E+02  2.707226846E+02  1.250000000E+02  0.00000E+00  9.000E+00
      25     1     1     2     0     0 -5.459695708E+01 -7.661536053E+01 -1.167538798E+02  1.952106801E+02  1.250000000E+02  0.00000E+00  9.000E+00
      -3     1     1     2     0   502 -8.653543110E+00 -5.554287022E+01  8.873606015E+01  1.050427656E+02  2.336015456E-06  0.00000E+00  9.000E+00
#rwgt            1           1   3.7489890430621828E-002           5      354903           0
</event>
<event>
      5   9999  3.79277E-02  9.15728E+01 -1.00000E+00  1.25572E-01
      21    -1     0     0   502   501  0.000000000E+00  0.000000000E+00  7.720680308E+02  7.720680308E+02  0.000000000E+00  0.00000E+00  9.000E+00
      21    -1     0     0   511   502  0.000000000E+00  0.000000000E+00 -3.525797047E+02  3.525797047E+02  0.000000000E+00  0.00000E+00  9.000E+00
      25     1     1     2     0     0  3.305813716E+02 -3.694012246E+01  1.814307242E+02  3.989871220E+02  1.250000000E+02  0.00000E+00  9.000E+00
      25     1     1     2     0     0 -2.639567296E+02 -2.588290373E+01  4.256785201E+02  5.168851732E+02  1.250000000E+02  0.00000E+00  9.000E+00
      21     1     1     2   511   501 -6.662464191E+01  6.282302619E+01 -1.876209182E+02  2.087754403E+02  3.814697266E-06  0.00000E+00  9.000E+00
#rwgt            1           1   3.6967837810981230E-002           5      354982           0
</event>
<event>
      5   9999  3.79277E-02  9.35575E+00 -1.00000E+00  1.99161E-01
      21    -1     0     0   502   501  0.000000000E+00  0.000000000E+00  1.102525386E+02  1.102525386E+02  0.000000000E+00  0.00000E+00  9.000E+00
      21    -1     0     0   512   502  0.000000000E+00  0.000000000E+00 -2.044151427E+02  2.044151427E+02  0.000000000E+00  0.00000E+00  9.000E+00
      25     1     1     2     0     0  5.135400498E+01 -4.612097096E+01 -4.308557739E+01  1.491500747E+02  1.250000000E+02  0.00000E+00  9.000E+00
      25     1     1     2     0     0 -5.280502550E+01  5.536350909E+01 -4.193534715E+01  1.524370762E+02  1.250000000E+02  0.00000E+00  9.000E+00
      21     1     1     2   512   501  1.451020526E+00 -9.242538126E+00 -9.141679599E+00  1.308053047E+01  0.000000000E+00  0.00000E+00  9.000E+00
#rwgt            1           1   7.5967363719754641E-002           5      355100           0
</event>
<event>
      5   9999  3.79277E-02  3.29726E+02 -1.00000E+00  1.04276E-01
      21    -1     0     0   502   501  0.000000000E+00  0.000000000E+00  5.705157545E+02  5.705157545E+02  0.000000000E+00  0.00000E+00  9.000E+00
      21    -1     0     0   511   502  0.000000000E+00  0.000000000E+00 -5.727026210E+02  5.727026210E+02  0.000000000E+00  0.00000E+00  9.000E+00
      25     1     1     2     0     0 -1.601061083E+02  1.253431936E+02  4.035817475E+02  4.688796317E+02  1.250000000E+02  0.00000E+00  9.000E+00
      25     1     1     2     0     0 -7.828128943E+01  1.024520615E+02 -4.407857734E+01  1.849116172E+02  1.250000000E+02  0.00000E+00  9.000E+00
      21     1     1     2   511   501  2.383873977E+02 -2.277952551E+02 -3.616900368E+02  4.894271266E+02  7.629394531E-06  0.00000E+00  9.000E+00
#rwgt            1           1   5.2240018648442313E-002           5      355357           0
</event>
<event>
      5   9999  3.79277E-02  2.84954E+01 -1.00000E+00  1.54608E-01
      21    -1     0     0   502   512  0.000000000E+00  0.000000000E+00  5.769093404E+02  5.769093404E+02  0.000000000E+00  0.00000E+00  9.000E+00
      21    -1     0     0   501   502  0.000000000E+00  0.000000000E+00 -1.513023863E+02  1.513023863E+02  0.000000000E+00  0.00000E+00  9.000E+00
      25     1     1     2     0     0  1.033771805E+02 -6.368599731E+01  4.115110817E+02  4.468882612E+02  1.250000000E+02  0.00000E+00  9.000E+00
      25     1     1     2     0     0 -1.317617446E+02  6.619701099E+01 -5.961836802E+01  2.022932312E+02  1.250000000E+02  0.00000E+00  9.000E+00
      21     1     1     2   501   512  2.838456410E+01 -2.511013676E+00  7.371424046E+01  7.903023418E+01  9.536743164E-07  0.00000E+00  9.000E+00
#rwgt            1           1   4.5180075712679887E-002           5      355432           0
</event>
<event>
      5   9999  3.79277E-02  1.56042E+01 -1.00000E+00  1.75783E-01
      21    -1     0     0   511   501  0.000000000E+00  0.000000000E+00  1.681696968E+02  1.681696968E+02  0.000000000E+00  0.00000E+00  9.000E+00
      21    -1     0     0   501   502  0.000000000E+00  0.000000000E+00 -2.397093719E+02  2.397093719E+02  0.000000000E+00  0.00000E+00  9.000E+00
      25     1     1     2     0     0  3.897010326E+01 -1.498742402E+01  9.843970872E+01  1.644951917E+02  1.250000000E+02  0.00000E+00  9.000E+00
      25     1     1     2     0     0 -2.468397844E+01  2.126416464E+01 -1.823520213E+02  2.234697365E+02  1.250000000E+02  0.00000E+00  9.000E+00
      21     1     1     2   511   502 -1.428612482E+01 -6.276740614E+00  1.237263744E+01  1.991414051E+01  4.129530925E-07  0.00000E+00  9.000E+00
#rwgt            1           1   4.5105190641007251E-002           5      355697           0
</event>
<event>
      5   9999  3.79277E-02  4.23806E+00 -1.00000E+00  2.57691E-01
      21    -1     0     0   502   501  0.000000000E+00  0.000000000E+00  5.186170205E+01  5.186170205E+01  0.000000000E+00  0.00000E+00  9.000E+00
      21    -1     0     0   501   512  0.000000000E+00  0.000000000E+00 -1.069302269E+03  1.069302269E+03  0.000000000E+00  0.00000E+00  9.000E+00
      25     1     1     2     0     0  9.305408735E+01  7.178289439E+01 -6.868173168E+02  7.079229292E+02  1.250000000E+02  0.00000E+00  9.000E+00
      25     1     1     2     0     0 -9.699354849E+01 -7.334551378E+01 -1.428758868E+02  2.254458513E+02  1.250000000E+02  0.00000E+00  9.000E+00
      21     1     1     2   502   512  3.939461133E+00  1.562619389E+00 -1.877473638E+02  1.877951909E+02  2.697398305E-06  0.00000E+00  9.000E+00
#rwgt            1           1   3.1205626414294276E-002           5      355868           0
</event>
<event>
      5   9999  3.79277E-02  1.89845E+01 -1.00000E+00  1.68258E-01
      21    -1     0     0   502   511  0.000000000E+00  0.000000000E+00  2.409714285E+02  2.409714285E+02  0.000000000E+00  0.00000E+00  9.000E+00
      21    -1     0     0   501   502  0.000000000E+00  0.000000000E+00 -3.515239695E+02  3.515239695E+02  0.000000000E+00  0.00000E+00  9.000E+00
      25     1     1     2     0     0  2.279351509E+02 -1.735570715E+01 -3.774986921E+00  2.605665062E+02  1.250000000E+02  0.00000E+00  9.000E+00
      25     1     1     2     0     0 -2.402976919E+02  3.176330140E+01 -1.298448829E+02  3.020539383E+02  1.250000000E+02  0.00000E+00  9.000E+00
      21     1     1     2   501   511  1.236254090E+01 -1.440759426E+01  2.306732880E+01  2.987495352E+01  4.768371582E-07  0.00000E+00  9.000E+00
#rwgt            1           1   4.8206956164147344E-002           5      356356           0
</event>
<event>
      5   9999  3.79277E-02  3.62907E+01 -1.00000E+00  1.47511E-01
       4    -1     0     0   502     0  0.000000000E+00  0.000000000E+00  5.728277063E+02  5.728277063E+02  0.000000000E+00  0.00000E+00  9.000E+00
      21    -1     0     0   501   502  0.000000000E+00  0.000000000E+00 -1.337130561E+03  1.337130561E+03  0.000000000E+00  0.00000E+00  9.000E+00
      25     1     1     2     0     0 -5.191549117E+01  1.131027104E+01 -1.144746685E+03  1.152776263E+03  1.250000000E+02  0.00000E+00  9.000E+00
      25     1     1     2     0     0  8.625766604E+01  4.212547142E-01 -1.570452535E+02  2.184691604E+02  1.250000000E+02  0.00000E+00  9.000E+00
       4     1     1     2   501     0 -3.434217487E+01 -1.173152575E+01  5.374890834E+02  5.387128441E+02  0.000000000E+00  0.00000E+00  9.000E+00
#rwgt            1           1   4.9709983817743400E-002           5      356539           0
</event>
<event>
      5   9999 -3.79277E-02  1.86147E+01 -1.00000E+00  1.68983E-01
      21    -1     0     0   502   501  0.000000000E+00  0.000000000E+00  6.559815099E+01  6.559815099E+01  0.000000000E+00  0.00000E+00  9.000E+00
      21    -1     0     0   511   502  0.000000000E+00  0.000000000E+00 -6.524268618E+02  6.524268618E+02  0.000000000E+00  0.00000E+00  9.000E+00
      25     1     1     2     0     0  2.760834045E+01 -1.446835989E+02 -3.028869488E+02  3.592507036E+02  1.250000000E+02  0.00000E+00  9.000E+00
      25     1     1     2     0     0 -1.370337766E+01  1.323078509E+02 -1.918123831E+02  2.647831948E+02  1.250000000E+02  0.00000E+00  9.000E+00
      21     1     1     2   511   501 -1.390496279E+01  1.237574801E+01 -9.212937893E+01  9.399111443E+01  0.000000000E+00  0.00000E+00  9.000E+00
#rwgt            1           1  -3.0476024861479125E-002           5      356785           0
</event>
<event>
      5   9999  3.79277E-02  7.37686E+01 -1.00000E+00  1.30078E-01
      21    -1     0     0   502   501  0.000000000E+00  0.000000000E+00  9.033786024E+01  9.033786024E+01  0.000000000E+00  0.00000E+00  9.000E+00
      21    -1     0     0   501   512  0.000000000E+00  0.000000000E+00 -9.474088780E+02  9.474088780E+02  0.000000000E+00  0.00000E+00  9.000E+00
      25     1     1     2     0     0  2.063167051E+02  8.162874543E+01 -4.595121893E+02  5.253630050E+02  1.250000000E+02  0.00000E+00  9.000E+00
      25     1     1     2     0     0 -1.338987469E+02 -6.757713201E+01 -1.293253783E+02  2.341913676E+02  1.250000000E+02  0.00000E+00  9.000E+00
      21     1     1     2   502   512 -7.241795823E+01 -1.405161342E+01 -2.682334500E+02  2.781923655E+02  5.394796609E-06  0.00000E+00  9.000E+00
#rwgt            1           1   4.0246536903283545E-002           5      356960           0
</event>
<event>
      5   9999  3.79277E-02  1.55941E+01 -1.00000E+00  1.75809E-01
      21    -1     0     0   502   511  0.000000000E+00  0.000000000E+00  9.108779336E+01  9.108779336E+01  0.000000000E+00  0.00000E+00  9.000E+00
      21    -1     0     0   501   502  0.000000000E+00  0.000000000E+00 -7.744247031E+02  7.744247031E+02  0.000000000E+00  0.00000E+00  9.000E+00
      25     1     1     2     0     0 -2.155200308E+01 -1.830647248E+02 -3.821660210E+02  4.423268587E+02  1.250000000E+02  0.00000E+00  9.000E+00
      25     1     1     2     0     0  2.564678338E+01  1.680178369E+02 -3.292611868E+02  3.910571316E+02  1.250000000E+02  0.00000E+00  9.000E+00
      21     1     1     2   501   511 -4.094780299E+00  1.504688783E+01  2.809029812E+01  3.212850616E+01  1.305872339E-06  0.00000E+00  9.000E+00
#rwgt            1           1   4.6663020840259355E-002           5      357101           0
</event>
<event>
      5   9999  3.79277E-02  2.04338E+01 -1.00000E+00  1.65604E-01
      21    -1     0     0   502   501  0.000000000E+00  0.000000000E+00  1.960274895E+02  1.960274895E+02  0.000000000E+00  0.00000E+00  9.000E+00
      21    -1     0     0   512   502  0.000000000E+00  0.000000000E+00 -2.407839412E+02  2.407839412E+02  0.000000000E+00  0.00000E+00  9.000E+00
      25     1     1     2     0     0 -5.045263022E+01  9.769129647E+01  1.063480079E+02  1.975448205E+02  1.250000000E+02  0.00000E+00  9.000E+00
      25     1     1     2     0     0  6.516946019E+01 -8.351538128E+01 -1.423005709E+02  2.170168886E+02  1.250000000E+02  0.00000E+00  9.000E+00
      21     1     1     2   512   501 -1.471682997E+01 -1.417591519E+01 -8.803888755E+00  2.224972164E+01  4.129530925E-07  0.00000E+00  9.000E+00
#rwgt            1           1   2.4222038608439033E-002           5      357608           0
</event>
<event>
      5   9999  3.79277E-02  1.70702E+01 -1.00000E+00  1.72252E-01
       2    -1     0     0   502     0  0.000000000E+00  0.000000000E+00  5.269126634E+02  5.269126634E+02  0.000000000E+00  0.00000E+00  9.000E+00
      21    -1     0     0   501   502  0.000000000E+00  0.000000000E+00 -6.603159441E+01  6.603159441E+01  0.000000000E+00  0.00000E+00  9.000E+00
      25     1     1     2     0     0 -1.014146490E+02  4.273152908E+01  2.724676795E+02  3.193345440E+02  1.250000000E+02  0.00000E+00  9.000E+00
      25     1     1     2     0     0  9.607700699E+01 -2.651730589E+01  1.117192574E+02  1.950388455E+02  1.250000000E+02  0.00000E+00  9.000E+00
       2     1     1     2   501     0  5.337641957E+00 -1.621422319E+01  7.669413207E+01  7.857086832E+01  9.536743164E-07  0.00000E+00  9.000E+00
#rwgt            1           1   4.7287795567399343E-002           5      357794           0
</event>
<event>
      5   9999  3.79277E-02  2.13569E+01 -1.00000E+00  1.64051E-01
      21    -1     0     0   502   501  0.000000000E+00  0.000000000E+00  2.213007681E+02  2.213007681E+02  0.000000000E+00  0.00000E+00  9.000E+00
      21    -1     0     0   501   511  0.000000000E+00  0.000000000E+00 -1.661350219E+02  1.661350219E+02  0.000000000E+00  0.00000E+00  9.000E+00
      25     1     1     2     0     0 -1.174435339E+02 -5.485673540E+01 -1.707382947E+01  1.808832793E+02  1.250000000E+02  0.00000E+00  9.000E+00
      25     1     1     2     0     0  1.064245172E+02  3.656200615E+01  7.650679961E+01  1.847735061E+02  1.250000000E+02  0.00000E+00  9.000E+00
      21     1     1     2   502   511  1.101901664E+01  1.829472924E+01 -4.267223956E+00  2.177900471E+01  3.475518164E-07  0.00000E+00  9.000E+00
#rwgt            1           1  0.25271784522809759                5      357999           0
</event>
<event>
      5   9999  3.79277E-02  8.55207E+01 -1.00000E+00  1.26962E-01
      21    -1     0     0   502   501  0.000000000E+00  0.000000000E+00  2.492257259E+02  2.492257259E+02  0.000000000E+00  0.00000E+00  9.000E+00
      21    -1     0     0   501   512  0.000000000E+00  0.000000000E+00 -7.465212125E+02  7.465212125E+02  0.000000000E+00  0.00000E+00  9.000E+00
      25     1     1     2     0     0 -4.892166076E+01  3.046916840E+02 -4.818565156E+02  5.856970657E+02  1.250000000E+02  0.00000E+00  9.000E+00
      25     1     1     2     0     0  7.792832000E+00 -2.297102565E+02  8.781506048E+01  2.759782872E+02  1.250000000E+02  0.00000E+00  9.000E+00
      21     1     1     2   502   512  4.112882876E+01 -7.498142745E+01 -1.032540314E+02  1.340715854E+02  1.348699152E-06  0.00000E+00  9.000E+00
#rwgt            2          11   3.6015688467962753E-003           5      358127           0
</event>
<event>
      5   9999  3.79277E-02  6.09942E+01 -1.00000E+00  1.34323E-01
      21    -1     0     0   511   501  0.000000000E+00  0.000000000E+00  2.541877727E+02  2.541877727E+02  0.000000000E+00  0.00000E+00  9.000E+00
      21    -1     0     0   501   502  0.000000000E+00  0.000000000E+00 -6.295736467E+02  6.295736467E+02  0.000000000E+00  0.00000E+00  9.000E+00
      25     1     1     2     0     0 -6.162659819E+01 -6.115735721E+01 -3.355482670E+02  3.684504030E+02  1.250000000E+02  0.00000E+00  9.000E+00
      25     1     1     2     0     0  9.104637176E-01  5.533988465E+01 -2.562676948E+02  2.904504487E+02  1.250000000E+02  0.00000E+00  9.000E+00
      21     1     1     2   511   502  6.071613447E+01  5.817472553E+00  2.164300878E+02  2.248605676E+02  3.814697266E-06  0.00000E+00  9.000E+00
#rwgt            1           1   4.1766998053864607E-002           5      358147           0
</event>
<event>
      5   9999  3.79277E-02  2.75129E+01 -1.00000E+00  1.55697E-01
      21    -1     0     0   502   501  0.000000000E+00  0.000000000E+00  2.779753608E+02  2.779753608E+02  0.000000000E+00  0.00000E+00  9.000E+00
      21    -1     0     0   501   512  0.000000000E+00  0.000000000E+00 -4.692857016E+02  4.692857016E+02  0.000000000E+00  0.00000E+00  9.000E+00
      25     1     1     2     0     0 -5.859465997E+01 -1.266323034E+02  5.353772953E+01  1.948341934E+02  1.250000000E+02  0.00000E+00  9.000E+00
      25     1     1     2     0     0  8.112413191E+01  1.108404927E+02  9.696464684E+01  2.095086689E+02  1.250000000E+02  0.00000E+00  9.000E+00
      21     1     1     2   502   512 -2.252947194E+01  1.579181072E+01 -3.418127171E+02  3.429182001E+02  0.000000000E+00  0.00000E+00  9.000E+00
#rwgt            1           1   3.9764077967404630E-002           5      358284           0
</event>
<event>
      5   9999  3.79277E-02  2.90953E+01 -1.00000E+00  1.53969E-01
      21    -1     0     0   502   501  0.000000000E+00  0.000000000E+00  4.480460106E+02  4.480460106E+02  0.000000000E+00  0.00000E+00  9.000E+00
      21    -1     0     0   511   502  0.000000000E+00  0.000000000E+00 -8.403223028E+01  8.403223028E+01  0.000000000E+00  0.00000E+00  9.000E+00
      25     1     1     2     0     0  8.385041721E+01  1.996216462E+01  3.054901255E+02  3.411430745E+02  1.250000000E+02  0.00000E+00  9.000E+00
      25     1     1     2     0     0 -6.908530106E+01 -4.503264398E+01  6.107590981E+01  1.617281194E+02  1.250000000E+02  0.00000E+00  9.000E+00
      21     1     1     2   511   501 -1.476511614E+01  2.507047936E+01 -2.552254977E+00  2.920704702E+01  1.332800375E-07  0.00000E+00  9.000E+00
#rwgt            1           1   4.2149969984127469E-002           5      358480           0
</event>
<event>
      5   9999  3.79277E-02  5.64083E+01 -1.00000E+00  1.36152E-01
      21    -1     0     0   512   501  0.000000000E+00  0.000000000E+00  2.021323476E+02  2.021323476E+02  0.000000000E+00  0.00000E+00  9.000E+00
      21    -1     0     0   501   502  0.000000000E+00  0.000000000E+00 -3.850590406E+02  3.850590406E+02  0.000000000E+00  0.00000E+00  9.000E+00
      25     1     1     2     0     0 -1.393849128E+02  2.773750461E+00 -1.435283180E+01  1.877947054E+02  1.250000000E+02  0.00000E+00  9.000E+00
      25     1     1     2     0     0  1.712591518E+02  4.376578499E+01 -2.300925074E+02  3.159314847E+02  1.250000000E+02  0.00000E+00  9.000E+00
      21     1     1     2   512   502 -3.187423903E+01 -4.653953545E+01  6.151864621E+01  8.346519817E+01  9.536743164E-07  0.00000E+00  9.000E+00
#rwgt            1           1   3.6391180992437780E-002           5      358635           0
</event>
<event>
      5   9999  3.79277E-02  5.02661E+01 -1.00000E+00  1.38944E-01
      21    -1     0     0   502   511  0.000000000E+00  0.000000000E+00  1.727950920E+02  1.727950920E+02  0.000000000E+00  0.00000E+00  9.000E+00
      21    -1     0     0   501   502  0.000000000E+00  0.000000000E+00 -5.707469816E+02  5.707469816E+02  0.000000000E+00  0.00000E+00  9.000E+00
      25     1     1     2     0     0  1.886532610E+02  5.736269333E+01 -2.503962850E+02  3.423504506E+02  1.250000000E+02  0.00000E+00  9.000E+00
      25     1     1     2     0     0 -1.627853747E+02 -1.004617762E+02 -2.172242028E+02  3.152824146E+02  1.250000000E+02  0.00000E+00  9.000E+00
      21     1     1     2   501   511 -2.586788632E+01  4.309908286E+01  6.966859826E+01  8.590920829E+01  1.907348633E-06  0.00000E+00  9.000E+00
#rwgt            1           1   3.5209534450140835E-002           5      358744           0
</event>
<event>
      5   9999  3.79277E-02  6.53675E+01 -1.00000E+00  1.32745E-01
      21    -1     0     0   502   501  0.000000000E+00  0.000000000E+00  5.964821296E+02  5.964821296E+02  0.000000000E+00  0.00000E+00  9.000E+00
      21    -1     0     0   501   512  0.000000000E+00  0.000000000E+00 -3.016724094E+02  3.016724094E+02  0.000000000E+00  0.00000E+00  9.000E+00
      25     1     1     2     0     0  8.890748711E+01  2.976032589E+02  8.126038652E+01  3.445293767E+02  1.250000000E+02  0.00000E+00  9.000E+00
      25     1     1     2     0     0 -1.021459862E+02 -3.616162128E+02  2.597328756E+02  4.735886977E+02  1.250000000E+02  0.00000E+00  9.000E+00
      21     1     1     2   502   512  1.323849913E+01  6.401295396E+01 -4.618354191E+01  8.003646467E+01  1.168007728E-06  0.00000E+00  9.000E+00
#rwgt            1           1   3.5586332798112810E-002           5      358862           0
</event>
<event>
      5   9999  3.79277E-02  4.11827E+01 -1.00000E+00  1.44060E-01
      -3    -1     0     0     0   501  0.000000000E+00  0.000000000E+00  4.649106412E+02  4.649106412E+02  0.000000000E+00  0.00000E+00  9.000E+00
      21    -1     0     0   501   502  0.000000000E+00  0.000000000E+00 -5.911262099E+02  5.911262099E+02  0.000000000E+00  0.00000E+00  9.000E+00
      25     1     1     2     0     0 -1.290335063E+02 -1.699491399E+02 -2.234733631E+02  3.333132160E+02  1.250000000E+02  0.00000E+00  9.000E+00
      25     1     1     2     0     0  1.003917918E+02  1.995408249E+02 -2.589701662E+02  3.641230557E+02  1.250000000E+02  0.00000E+00  9.000E+00
      -3     1     1     2     0   502  2.864171447E+01 -2.959168497E+01  3.562279607E+02  3.586005794E+02  3.814697266E-06  0.00000E+00  9.000E+00
#rwgt            1           1   3.6398392554859778E-002           5      359064           0
</event>
<event>
      5   9999  3.79277E-02  2.68317E+01 -1.00000E+00  1.56485E-01
      21    -1     0     0   511   501  0.000000000E+00  0.000000000E+00  5.956501925E+02  5.956501925E+02  0.000000000E+00  0.00000E+00  9.000E+00
      21    -1     0     0   501   502  0.000000000E+00  0.000000000E+00 -6.167045841E+02  6.167045841E+02  0.000000000E+00  0.00000E+00  9.000E+00
      25     1     1     2     0     0  2.470272056E+02  2.030607109E+01 -2.833117275E+02  3.966425492E+02  1.250000000E+02  0.00000E+00  9.000E+00
      25     1     1     2     0     0 -2.491071754E+02 -4.705705928E+01 -2.040637756E+02  3.486198161E+02  1.250000000E+02  0.00000E+00  9.000E+00
      21     1     1     2   511   502  2.079969774E+00  2.675098819E+01  4.663211116E+02  4.670924113E+02  0.000000000E+00  0.00000E+00  9.000E+00
#rwgt            1           1   2.0339712234586891E-002           5      359283           0
</event>
<event>
      5   9999  3.79277E-02  1.82981E+01 -1.00000E+00  1.69620E-01
      21    -1     0     0   512   501  0.000000000E+00  0.000000000E+00  1.968602146E+02  1.968602146E+02  0.000000000E+00  0.00000E+00  9.000E+00
      21    -1     0     0   501   502  0.000000000E+00  0.000000000E+00 -3.997524607E+02  3.997524607E+02  0.000000000E+00  0.00000E+00  9.000E+00
      25     1     1     2     0     0 -2.023557725E+02  4.754506602E+01 -2.367060397E+02  3.389146517E+02  1.250000000E+02  0.00000E+00  9.000E+00
      25     1     1     2     0     0  1.914936371E+02 -6.227032070E+01  3.376241536E+01  2.393998885E+02  1.250000000E+02  0.00000E+00  9.000E+00
      21     1     1     2   512   502  1.086213531E+01  1.472525468E+01  5.137813224E-02  1.829813511E+01  3.278572944E-07  0.00000E+00  9.000E+00
#rwgt            1           1   5.7913269447148932E-002           5      359395           0
</event>
<event>
      5   9999 -3.79277E-02  1.97400E+02 -1.00000E+00  1.11855E-01
      21    -1     0     0   502   501  0.000000000E+00  0.000000000E+00  1.724662847E+03  1.724662847E+03  0.000000000E+00  0.00000E+00  9.000E+00
      21    -1     0     0   501   511  0.000000000E+00  0.000000000E+00 -7.537832925E+01  7.537832925E+01  0.000000000E+00  0.00000E+00  9.000E+00
      25     1     1     2     0     0 -2.780547083E+02  9.365775866E+01  8.526967762E+02  9.103861756E+02  1.250000000E+02  0.00000E+00  9.000E+00
      25     1     1     2     0     0  1.370013539E+02  4.443904965E+01  4.808626644E+02  5.172988518E+02  1.250000000E+02  0.00000E+00  9.000E+00
      21     1     1     2   502   511  1.410533544E+02 -1.380968083E+02  3.157250773E+02  3.723561490E+02  5.394796609E-06  0.00000E+00  9.000E+00
#rwgt            1           1 -0.14260833284910854                5      359633           0
</event>
<event>
      5   9999  3.79277E-02  4.99701E+01 -1.00000E+00  1.39090E-01
      21    -1     0     0   512   501  0.000000000E+00  0.000000000E+00  1.564466248E+03  1.564466248E+03  0.000000000E+00  0.00000E+00  9.000E+00
      21    -1     0     0   501   502  0.000000000E+00  0.000000000E+00 -1.594037970E+02  1.594037970E+02  0.000000000E+00  0.00000E+00  9.000E+00
      25     1     1     2     0     0  1.359526161E+02  1.677618046E+02  2.540173394E+02  3.560575032E+02  1.250000000E+02  0.00000E+00  9.000E+00
      25     1     1     2     0     0 -1.382706482E+02 -2.176780697E+02  8.266342071E+01  2.982628963E+02  1.250000000E+02  0.00000E+00  9.000E+00
      21     1     1     2   512   502  2.318032104E+00  4.991626508E+01  1.068381690E+03  1.069549645E+03  1.525878906E-05  0.00000E+00  9.000E+00
#rwgt            1           1   2.9462007121950518E-002           5      359786           0
</event>
<event>
      5   9999  3.79277E-02  1.43004E+02 -1.00000E+00  1.17222E-01
       2    -1     0     0   502     0  0.000000000E+00  0.000000000E+00  7.077749091E+02  7.077749091E+02  0.000000000E+00  0.00000E+00  9.000E+00
      21    -1     0     0   501   502  0.000000000E+00  0.000000000E+00 -1.269456165E+02  1.269456165E+02  0.000000000E+00  0.00000E+00  9.000E+00
      25     1     1     2     0     0  8.370669837E+00  1.133207007E+02  3.505625512E+02  3.891410434E+02  1.250000000E+02  0.00000E+00  9.000E+00
      25     1     1     2     0     0 -6.021140769E+01  1.995558959E+01 -3.477233692E+01  1.444221402E+02  1.250000000E+02  0.00000E+00  9.000E+00
       2     1     1     2   501     0  5.184073785E+01 -1.332762903E+02  2.650390783E+02  3.011573420E+02  5.394796609E-06  0.00000E+00  9.000E+00
#rwgt            1           1   4.6761874607196233E-002           5      360022           0
</event>
<event>
      5   9999  3.79277E-02  6.51571E+01 -1.00000E+00  1.32817E-01
      21    -1     0     0   502   511  0.000000000E+00  0.000000000E+00  6.090727373E+02  6.090727373E+02  0.000000000E+00  0.00000E+00  9.000E+00
      21    -1     0     0   501   502  0.000000000E+00  0.000000000E+00 -1.758006982E+03  1.758006982E+03  0.000000000E+00  0.00000E+00  9.000E+00
      25     1     1     2     0     0  6.505297068E+01 -1.947671829E+02 -1.336751172E+03  1.358195436E+03  1.250000000E+02  0.00000E+00  9.000E+00
      25     1     1     2     0     0 -1.300442239E+02  1.901210139E+02 -3.666054810E+02  4.506462901E+02  1.250000000E+02  0.00000E+00  9.000E+00
      21     1     1     2   501   511  6.499125325E+01  4.646169056E+00  5.544224089E+02  5.582379934E+02  7.629394531E-06  0.00000E+00  9.000E+00
#rwgt            1           1   3.8315498655094142E-002           5      360143           0
</event>
<event>
      5   9999  3.79277E-02  3.74071E+01 -1.00000E+00  1.46669E-01
      21    -1     0     0   502   501  0.000000000E+00  0.000000000E+00  1.957624292E+02  1.957624292E+02  0.000000000E+00  0.00000E+00  9.000E+00
      21    -1     0     0   512   502  0.000000000E+00  0.000000000E+00 -8.645144247E+02  8.645144247E+02  0.000000000E+00  0.00000E+00  9.000E+00
      25     1     1     2     0     0 -1.913425446E+02 -8.523267703E+01 -5.279158497E+02  5.815468364E+02  1.250000000E+02  0.00000E+00  9.000E+00
      25     1     1     2     0     0  2.287321106E+02  8.637757211E+01  5.440611511E+01  2.799365798E+02  1.250000000E+02  0.00000E+00  9.000E+00
      21     1     1     2   512   501 -3.738956598E+01 -1.144895078E+00 -1.952422609E+02  1.987934376E+02  2.697398305E-06  0.00000E+00  9.000E+00
#rwgt            1           1   5.1209559517797473E-002           5      360272           0
</event>
<event>
      5   9999 -3.79277E-02  1.30228E+02 -1.00000E+00  1.18880E-01
      21    -1     0     0   502   501  0.000000000E+00  0.000000000E+00  7.984863219E+02  7.984863219E+02  0.000000000E+00  0.00000E+00  9.000E+00
      21    -1     0     0   501   511  0.000000000E+00  0.000000000E+00 -4.479251540E+02  4.479251540E+02  0.000000000E+00  0.00000E+00  9.000E+00
      25     1     1     2     0     0 -9.573295420E+01  1.039883521E+02  5.175831147E+02  5.509043987E+02  1.250000000E+02  0.00000E+00  9.000E+00
      25     1     1     2     0     0  1.785106761E+02 -3.454407576E+00  2.063114176E+02  3.001123047E+02  1.250000000E+02  0.00000E+00  9.000E+00
      21     1     1     2   502   511 -8.277772191E+01 -1.005339445E+02 -3.733333643E+02  3.953947725E+02  0.000000000E+00  0.00000E+00  9.000E+00
#rwgt            1           1  -5.6072399438866230E-002           5      360473           0
</event>
<event>
      5   9999  3.79277E-02  7.93829E+01 -1.00000E+00  1.28512E-01
      21    -1     0     0   512   501  0.000000000E+00  0.000000000E+00  1.522965060E+02  1.522965060E+02  0.000000000E+00  0.00000E+00  9.000E+00
      21    -1     0     0   501   502  0.000000000E+00  0.000000000E+00 -4.155138181E+02  4.155138181E+02  0.000000000E+00  0.00000E+00  9.000E+00
      25     1     1     2     0     0 -1.600370982E+02 -1.068991897E+02 -6.585670358E+01  2.387496910E+02  1.250000000E+02  0.00000E+00  9.000E+00
      25     1     1     2     0     0  9.175899882E+01  6.640532608E+01 -1.821016058E+02  2.482244469E+02  1.250000000E+02  0.00000E+00  9.000E+00
      21     1     1     2   512   502  6.827809934E+01  4.049386362E+01 -1.525900271E+01  8.083618623E+01  1.410503336E-06  0.00000E+00  9.000E+00
#rwgt            1           1   4.2532614037910650E-002           5      360526           0
</event>
<event>
      5   9999  3.79277E-02  6.42819E+01 -1.00000E+00  1.33123E-01
      21    -1     0     0   511   501  0.000000000E+00  0.000000000E+00  7.730043974E+02  7.730043974E+02  0.000000000E+00  0.00000E+00  9.000E+00
      21    -1     0     0   501   502  0.000000000E+00  0.000000000E+00 -2.186005619E+02  2.186005619E+02  0.000000000E+00  0.00000E+00  9.000E+00
      25     1     1     2     0     0  2.220018722E+02 -2.189308947E+01  2.714290003E+02  3.729113043E+02  1.250000000E+02  0.00000E+00  9.000E+00
      25     1     1     2     0     0 -2.146440655E+02 -4.196629485E+01 -6.876662100E+01  2.611265841E+02  1.250000000E+02  0.00000E+00  9.000E+00
      21     1     1     2   511   502 -7.357806670E+00  6.385938431E+01  3.517414562E+02  3.575670710E+02  6.607249480E-06  0.00000E+00  9.000E+00
#rwgt            1           1   6.4761580500645302E-002           5      360593           0
</event>
<event>
      5   9999  3.79277E-02  2.33674E+01 -1.00000E+00  1.60980E-01
      21    -1     0     0   502   501  0.000000000E+00  0.000000000E+00  4.598251657E+02  4.598251657E+02  0.000000000E+00  0.00000E+00  9.000E+00
      21    -1     0     0   512   502  0.000000000E+00  0.000000000E+00 -1.668609980E+02  1.668609980E+02  0.000000000E+00  0.00000E+00  9.000E+00
      25     1     1     2     0     0 -2.087453942E+01 -3.368376725E+01 -9.041842719E+01  1.592822481E+02  1.250000000E+02  0.00000E+00  9.000E+00
      25     1     1     2     0     0  4.421543208E+01  3.257166900E+01  4.099114012E+02  4.320512411E+02  1.250000000E+02  0.00000E+00  9.000E+00
      21     1     1     2   512   501 -2.334089265E+01  1.112098250E+00 -2.652880639E+01  3.535267460E+01  5.840038640E-07  0.00000E+00  9.000E+00
#rwgt            1           1   2.7921651222771376E-002           5      360677           0
</event>
<event>
      5   9999  3.79277E-02  6.01496E+01 -1.00000E+00  1.34646E-01
      21    -1     0     0   502   501  0.000000000E+00  0.000000000E+00  4.123528248E+02  4.123528248E+02  0.000000000E+00  0.00000E+00  9.000E+00
      21    -1     0     0   501   511  0.000000000E+00  0.000000000E+00 -2.335847721E+02  2.335847721E+02  0.000000000E+00  0.00000E+00  9.000E+00
      25     1     1     2     0     0 -1.289666674E+02 -9.660331267E+01  1.963052108E+02  2.830641926E+02  1.250000000E+02  0.00000E+00  9.000E+00
      25     1     1     2     0     0  1.596225020E+02  1.483545474E+02  6.617416915E+01  2.597930629E+02  1.250000000E+02  0.00000E+00  9.000E+00
      21     1     1     2   502   511 -3.065583455E+01 -5.175123472E+01 -8.371132727E+01  1.030803415E+02  0.000000000E+00  0.00000E+00  9.000E+00
#rwgt            1           1   3.2317566025176402E-002           5      360837           0
</event>
<event>
      5   9999  3.79277E-02  7.86354E+01 -1.00000E+00  1.28712E-01
      21    -1     0     0   502   501  0.000000000E+00  0.000000000E+00  9.008178634E+01  9.008178634E+01  0.000000000E+00  0.00000E+00  9.000E+00
      21    -1     0     0   512   502  0.000000000E+00  0.000000000E+00 -7.498780891E+02  7.498780891E+02  0.000000000E+00  0.00000E+00  9.000E+00
      25     1     1     2     0     0 -2.232851628E+01  1.598055573E+02 -3.495162218E+02  4.047505010E+02  1.250000000E+02  0.00000E+00  9.000E+00
      25     1     1     2     0     0  6.746282938E+01 -9.541286420E+01 -7.443846960E+01  1.866036810E+02  1.250000000E+02  0.00000E+00  9.000E+00
      21     1     1     2   512   501 -4.513431310E+01 -6.439269313E+01 -2.358416114E+02  2.486056935E+02  0.000000000E+00  0.00000E+00  9.000E+00
#rwgt            1           1   4.7768177472057555E-002           5      361027           0
</event>
<event>
      5   9999  3.79277E-02  1.35953E+01 -1.00000E+00  1.81503E-01
      21    -1     0     0   502   511  0.000000000E+00  0.000000000E+00  1.257637238E+02  1.257637238E+02  0.000000000E+00  0.00000E+00  9.000E+00
      21    -1     0     0   501   502  0.000000000E+00  0.000000000E+00 -5.665539391E+02  5.665539391E+02  0.000000000E+00  0.00000E+00  9.000E+00
      25     1     1     2     0     0 -3.052864248E+01  3.376382018E+01 -5.001678643E+02  5.175566501E+02  1.250000000E+02  0.00000E+00  9.000E+00
      25     1     1     2     0     0  3.882553462E+01 -2.299380682E+01  2.163540191E+01  1.346448213E+02  1.250000000E+02  0.00000E+00  9.000E+00
      21     1     1     2   501   511 -8.296892139E+00 -1.077001335E+01  3.774224707E+01  4.011619151E+01  4.768371582E-07  0.00000E+00  9.000E+00
#rwgt            1           1   5.3082277390958360E-002           5      361150           0
</event>
<event>
      5   9999  3.79277E-02  4.04034E+01 -1.00000E+00  1.44570E-01
       2    -1     0     0   502     0  0.000000000E+00  0.000000000E+00  2.018575823E+03  2.018575823E+03  0.000000000E+00  0.00000E+00  9.000E+00
      21    -1     0     0   501   502  0.000000000E+00  0.000000000E+00 -6.850776272E+01  6.850776272E+01  0.000000000E+00  0.00000E+00  9.000E+00
      25     1     1     2     0     0 -2.149496594E+02 -4.257960939E+01  4.898081597E+02  5.509568155E+02  1.250000000E+02  0.00000E+00  9.000E+00
      25     1     1     2     0     0  2.126606221E+02  8.291815640E+01  4.134301511E+02  4.885176053E+02  1.250000000E+02  0.00000E+00  9.000E+00
       2     1     1     2   501     0  2.289037257E+00 -4.033854701E+01  1.046829750E+03  1.047609165E+03  0.000000000E+00  0.00000E+00  9.000E+00
#rwgt            1           1   2.4435022591627397E-002           5      361455           0
</event>
<event>
      5   9999  3.79277E-02  5.40957E+01 -1.00000E+00  1.37152E-01
      21    -1     0     0   502   501  0.000000000E+00  0.000000000E+00  2.214514958E+02  2.214514958E+02  0.000000000E+00  0.00000E+00  9.000E+00
      21    -1     0     0   501   511  0.000000000E+00  0.000000000E+00 -3.177624229E+02  3.177624229E+02  0.000000000E+00  0.00000E+00  9.000E+00
      25     1     1     2     0     0 -2.808787953E+01  1.833188361E+02 -9.724489918E+01  2.438776231E+02  1.250000000E+02  0.00000E+00  9.000E+00
      25     1     1     2     0     0  1.233755888E+01 -1.315667763E+02  8.066814333E+01  1.989833695E+02  1.250000000E+02  0.00000E+00  9.000E+00
      21     1     1     2   502   511  1.575032065E+01 -5.175205982E+01 -7.973417132E+01  9.635292612E+01  0.000000000E+00  0.00000E+00  9.000E+00
#rwgt            1           1   3.7266429281086214E-002           5      361616           0
</event>
<event>
      5   9999  3.79277E-02  6.72281E+01 -1.00000E+00  1.32116E-01
      21    -1     0     0   502   501  0.000000000E+00  0.000000000E+00  5.111819453E+02  5.111819453E+02  0.000000000E+00  0.00000E+00  9.000E+00
      21    -1     0     0   501   512  0.000000000E+00  0.000000000E+00 -2.277731223E+02  2.277731223E+02  0.000000000E+00  0.00000E+00  9.000E+00
      25     1     1     2     0     0 -4.046033240E+00  2.628147138E+02 -8.947556102E+00  2.911923814E+02  1.250000000E+02  0.00000E+00  9.000E+00
      25     1     1     2     0     0  8.594683640E+00 -1.957406957E+02  3.006719817E+02  3.800222745E+02  1.250000000E+02  0.00000E+00  9.000E+00
      21     1     1     2   502   512 -4.548650400E+00 -6.707401812E+01 -8.315602645E+00  6.774041168E+01  7.633118912E-07  0.00000E+00  9.000E+00
#rwgt            1           1   2.9837554056650825E-002           5      361736           0
</event>
<event>
      5   9999  3.79277E-02  1.42126E+01 -1.00000E+00  1.79618E-01
      21    -1     0     0   502   501  0.000000000E+00  0.000000000E+00  7.070914030E+01  7.070914030E+01  0.000000000E+00  0.00000E+00  9.000E+00
       2    -1     0     0   501     0  0.000000000E+00  0.000000000E+00 -7.482298213E+02  7.482298213E+02  0.000000000E+00  0.00000E+00  9.000E+00
      25     1     1     2     0     0 -8.453677621E+01  1.262224253E+02 -3.090497444E+02  3.663540797E+02  1.250000000E+02  0.00000E+00  9.000E+00
      25     1     1     2     0     0  9.834144959E+01 -1.296031065E+02 -2.103872141E+02  2.938635496E+02  1.250000000E+02  0.00000E+00  9.000E+00
       2     1     1     2   502     0 -1.380467338E+01  3.380681248E+00 -1.580837225E+02  1.587213323E+02  0.000000000E+00  0.00000E+00  9.000E+00
#rwgt            1           1   6.5032808270999110E-002           5      361887           0
</event>
<event>
      5   9999  3.79277E-02  1.19030E+01 -1.00000E+00  1.87400E-01
      21    -1     0     0   502   501  0.000000000E+00  0.000000000E+00  3.660098004E+02  3.660098004E+02  0.000000000E+00  0.00000E+00  9.000E+00
      21    -1     0     0   501   511  0.000000000E+00  0.000000000E+00 -1.352394763E+02  1.352394763E+02  0.000000000E+00  0.00000E+00  9.000E+00
      25     1     1     2     0     0 -1.058324308E+02  7.131646312E+01  2.568017416E+02  3.128237137E+02  1.250000000E+02  0.00000E+00  9.000E+00
      25     1     1     2     0     0  1.016518241E+02 -6.017182159E+01 -1.576315286E+01  1.727055832E+02  1.250000000E+02  0.00000E+00  9.000E+00
      21     1     1     2   502   511  4.180606684E+00 -1.114464153E+01 -1.026826469E+01  1.571997985E+01  1.192092896E-07  0.00000E+00  9.000E+00
#rwgt            1           1   5.1950348989219984E-002           5      362093           0
</event>
<event>
      5   9999  3.79277E-02  2.75647E+01 -1.00000E+00  1.55638E-01
      21    -1     0     0   512   501  0.000000000E+00  0.000000000E+00  7.152824058E+01  7.152824058E+01  0.000000000E+00  0.00000E+00  9.000E+00
      21    -1     0     0   501   502  0.000000000E+00  0.000000000E+00 -6.390363081E+02  6.390363081E+02  0.000000000E+00  0.00000E+00  9.000E+00
      25     1     1     2     0     0 -9.070009729E+01 -4.371321594E+01 -3.534595837E+02  3.881958657E+02  1.250000000E+02  0.00000E+00  9.000E+00
      25     1     1     2     0     0  9.987094664E+01  1.771883848E+01 -2.369998960E+02  2.864997625E+02  1.250000000E+02  0.00000E+00  9.000E+00
      21     1     1     2   512   502 -9.170849348E+00  2.599437746E+01  2.295141210E+01  3.586892046E+01  1.168007728E-06  0.00000E+00  9.000E+00
#rwgt            1           1   2.6959385175964551E-002           5      362312           0
</event>
<event>
      5   9999  3.79277E-02  3.80205E+01 -1.00000E+00  1.46221E-01
      21    -1     0     0   502   501  0.000000000E+00  0.000000000E+00  8.848359941E+02  8.848359941E+02  0.000000000E+00  0.00000E+00  9.000E+00
      21    -1     0     0   501   511  0.000000000E+00  0.000000000E+00 -2.404352293E+02  2.404352293E+02  0.000000000E+00  0.00000E+00  9.000E+00
      25     1     1     2     0     0  3.130232148E+02 -1.106510311E+02  4.871250688E+01  3.580853139E+02  1.250000000E+02  0.00000E+00  9.000E+00
      25     1     1     2     0     0 -3.181366909E+02  1.483260839E+02  6.190679431E+02  7.225522123E+02  1.250000000E+02  0.00000E+00  9.000E+00
      21     1     1     2   502   511  5.113476100E+00 -3.767505282E+01 -2.337968520E+01  4.463369717E+01  4.768371582E-07  0.00000E+00  9.000E+00
#rwgt            1           1  0.12724653168722383                5      362581           0
</event>
<event>
      5   9999  3.79277E-02  4.79745E+01 -1.00000E+00  1.40108E-01
      21    -1     0     0   502   501  0.000000000E+00  0.000000000E+00  3.938155372E+02  3.938155372E+02  0.000000000E+00  0.00000E+00  9.000E+00
       1    -1     0     0   501     0  0.000000000E+00  0.000000000E+00 -5.685358117E+02  5.685358117E+02  0.000000000E+00  0.00000E+00  9.000E+00
      25     1     1     2     0     0 -1.062905075E+02  2.843311116E+02  2.907094687E+01  3.295633064E+02  1.250000000E+02  0.00000E+00  9.000E+00
      25     1     1     2     0     0  1.371341293E+02 -2.475857125E+02  1.000551481E+02  3.251776240E+02  1.250000000E+02  0.00000E+00  9.000E+00
       1     1     1     2   502     0 -3.084362182E+01 -3.674539902E+01 -3.038463695E+02  3.076104186E+02  3.814697266E-06  0.00000E+00  9.000E+00
#rwgt            1           1   3.7803207628483729E-002           5      362709           0
</event>
<event>
      5   9999  3.79277E-02  9.39078E+01 -1.00000E+00  1.25068E-01
      21    -1     0     0   502   501  0.000000000E+00  0.000000000E+00  2.015717285E+02  2.015717285E+02  0.000000000E+00  0.00000E+00  9.000E+00
      21    -1     0     0   511   502  0.000000000E+00  0.000000000E+00 -5.361885779E+02  5.361885779E+02  0.000000000E+00  0.00000E+00  9.000E+00
      25     1     1     2     0     0  1.355617375E+02 -5.280603855E+01  1.016260246E+02  2.170675269E+02  1.250000000E+02  0.00000E+00  9.000E+00
      25     1     1     2     0     0 -5.927209439E+01  1.075652059E+02 -1.969027987E+02  2.635890112E+02  1.250000000E+02  0.00000E+00  9.000E+00
      21     1     1     2   511   501 -7.628964309E+01 -5.475916732E+01 -2.393400752E+02  2.571037683E+02  4.672030912E-06  0.00000E+00  9.000E+00
#rwgt            2          11   1.7281776336753373E-003           5      362895           0
</event>
<event>
      5   9999  3.79277E-02  1.01364E+02 -1.00000E+00  1.23564E-01
      21    -1     0     0   502   501  0.000000000E+00  0.000000000E+00  1.446348098E+02  1.446348098E+02  0.000000000E+00  0.00000E+00  9.000E+00
       2    -1     0     0   501     0  0.000000000E+00  0.000000000E+00 -9.450116124E+02  9.450116124E+02  0.000000000E+00  0.00000E+00  9.000E+00
      25     1     1     2     0     0  1.333324343E+02  1.912104562E+02 -1.007211177E+02  2.830348391E+02  1.250000000E+02  0.00000E+00  9.000E+00
      25     1     1     2     0     0 -3.491388275E+01 -1.669521244E+02 -1.816204897E+02  2.787525665E+02  1.250000000E+02  0.00000E+00  9.000E+00
       2     1     1     2   502     0 -9.841855152E+01 -2.425833182E+01 -5.180351953E+02  5.278590167E+02  0.000000000E+00  0.00000E+00  9.000E+00
#rwgt            1           1   4.5139074870791281E-002           5      363020           0
</event>
<event>
      5   9999  3.79277E-02  1.18917E+01 -1.00000E+00  1.87443E-01
      21    -1     0     0   502   511  0.000000000E+00  0.000000000E+00  1.396783856E+02  1.396783856E+02  0.000000000E+00  0.00000E+00  9.000E+00
      21    -1     0     0   501   502  0.000000000E+00  0.000000000E+00 -6.550428769E+02  6.550428769E+02  0.000000000E+00  0.00000E+00  9.000E+00
      25     1     1     2     0     0 -5.778469125E+01  1.421645188E+01 -7.926538567E+01  1.595279894E+02  1.250000000E+02  0.00000E+00  9.000E+00
      25     1     1     2     0     0  4.593174426E+01 -1.517587636E+01 -5.268675356E+02  5.436491814E+02  1.250000000E+02  0.00000E+00  9.000E+00
      21     1     1     2   501   511  1.185294699E+01  9.594244812E-01  9.076843000E+01  9.154409174E+01  1.907348633E-06  0.00000E+00  9.000E+00
#rwgt            1           1   3.0390016486895842E-002           5      363126           0
</event>
<event>
      5   9999  3.79277E-02  2.82699E+01 -1.00000E+00  1.54853E-01
      21    -1     0     0   502   501  0.000000000E+00  0.000000000E+00  6.406954808E+02  6.406954808E+02  0.000000000E+00  0.00000E+00  9.000E+00
      21    -1     0     0   501   512  0.000000000E+00  0.000000000E+00 -2.254185296E+02  2.254185296E+02  0.000000000E+00  0.00000E+00  9.000E+00
      25     1     1     2     0     0 -2.978798037E+02 -1.441954132E+02  3.525578729E+02  4.994464420E+02  1.250000000E+02  0.00000E+00  9.000E+00
      25     1     1     2     0     0  2.698133975E+02  1.408091376E+02  7.221033384E+01  3.368468718E+02  1.250000000E+02  0.00000E+00  9.000E+00
      21     1     1     2   502   512  2.806640616E+01  3.386275623E+00 -9.491255549E+00  2.982069666E+01  3.953724850E-07  0.00000E+00  9.000E+00
#rwgt            1           1   3.0851931299330698E-002           5      363270           0
</event>
<event>
      5   9999  3.79277E-02  3.60441E+01 -1.00000E+00  1.47702E-01
      21    -1     0     0   502   511  0.000000000E+00  0.000000000E+00  1.118856244E+03  1.118856244E+03  0.000000000E+00  0.00000E+00  9.000E+00
      21    -1     0     0   501   502  0.000000000E+00  0.000000000E+00 -5.661824492E+01  5.661824492E+01  0.000000000E+00  0.00000E+00  9.000E+00
      25     1     1     2     0     0 -5.109876341E+01 -1.414966693E+02  3.369951714E+02  3.896448853E+02  1.250000000E+02  0.00000E+00  9.000E+00
      25     1     1     2     0     0  7.784615246E+01  1.656577506E+02  3.894339457E+02  4.480918565E+02  1.250000000E+02  0.00000E+00  9.000E+00
      21     1     1     2   501   511 -2.674738905E+01 -2.416108122E+01  3.358088816E+02  3.377377469E+02  6.607249480E-06  0.00000E+00  9.000E+00
#rwgt            1           1   3.2800488747699481E-002           5      363518           0
</event>
<event>
      5   9999  3.79277E-02  6.37333E+01 -1.00000E+00  1.33317E-01
      21    -1     0     0   502   501  0.000000000E+00  0.000000000E+00  1.478034841E+02  1.478034841E+02  0.000000000E+00  0.00000E+00  9.000E+00
      21    -1     0     0   501   512  0.000000000E+00  0.000000000E+00 -1.502811226E+03  1.502811226E+03  0.000000000E+00  0.00000E+00  9.000E+00
      25     1     1     2     0     0  8.347072878E+01  1.580246654E+01 -7.273524430E+02  7.428887244E+02  1.250000000E+02  0.00000E+00  9.000E+00
      25     1     1     2     0     0 -1.433641726E+02 -3.759033606E+01  7.077135469E+01  2.063974418E+02  1.250000000E+02  0.00000E+00  9.000E+00
      21     1     1     2   502   512  5.989344383E+01  2.178786952E+01 -6.984266539E+02  7.013285441E+02  1.321449896E-05  0.00000E+00  9.000E+00
#rwgt            1           1   4.5346473654616706E-002           5      363707           0
</event>
<event>
      5   9999  3.79277E-02  4.21011E+01 -1.00000E+00  1.43475E-01
      21    -1     0     0   502   511  0.000000000E+00  0.000000000E+00  8.644468923E+02  8.644468923E+02  0.000000000E+00  0.00000E+00  9.000E+00
      21    -1     0     0   501   502  0.000000000E+00  0.000000000E+00 -2.403034454E+02  2.403034454E+02  0.000000000E+00  0.00000E+00  9.000E+00
      25     1     1     2     0     0  1.513664979E+02 -8.826022935E+01  7.381687300E+02  7.689081601E+02  1.250000000E+02  0.00000E+00  9.000E+00
      25     1     1     2     0     0 -1.682360823E+02  1.268338074E+02 -1.439935905E+02  2.841642979E+02  1.250000000E+02  0.00000E+00  9.000E+00
      21     1     1     2   501   511  1.686958442E+01 -3.857357807E+01  2.996830745E+01  5.167787975E+01  5.840038640E-07  0.00000E+00  9.000E+00
#rwgt            1           1   3.8150869063746713E-002           5      363771           0
</event>
<event>
      5   9999  3.79277E-02  4.22047E+01 -1.00000E+00  1.43410E-01
      21    -1     0     0   502   501  0.000000000E+00  0.000000000E+00  2.206992120E+02  2.206992120E+02  0.000000000E+00  0.00000E+00  9.000E+00
      -1    -1     0     0     0   502  0.000000000E+00  0.000000000E+00 -2.112170770E+03  2.112170770E+03  0.000000000E+00  0.00000E+00  9.000E+00
      25     1     1     2     0     0 -1.180434546E+01  1.148946039E+02  1.087324427E+02  2.019600373E+02  1.250000000E+02  0.00000E+00  9.000E+00
      25     1     1     2     0     0 -1.873910310E+00 -1.548212948E+02 -8.689904792E+01  2.171395620E+02  1.250000000E+02  0.00000E+00  9.000E+00
      -1     1     1     2     0   501  1.367825577E+01  3.992669098E+01 -1.913304953E+03  1.913770382E+03  3.737624730E-05  0.00000E+00  9.000E+00
#rwgt            1           1   4.9075258991716289E-002           5      363978           0
</event>
<event>
      5   9999  3.79277E-02  5.52737E+01 -1.00000E+00  1.36636E-01
      21    -1     0     0   502   501  0.000000000E+00  0.000000000E+00  1.311708255E+02  1.311708255E+02  0.000000000E+00  0.00000E+00  9.000E+00
       2    -1     0     0   501     0  0.000000000E+00  0.000000000E+00 -8.922851107E+02  8.922851107E+02  0.000000000E+00  0.00000E+00  9.000E+00
      25     1     1     2     0     0 -2.125435146E+01 -1.003367674E+02 -7.706288916E+01  1.791170099E+02  1.250000000E+02  0.00000E+00  9.000E+00
      25     1     1     2     0     0 -4.094232875E+00  1.494553192E+02 -4.129244156E+01  1.992077331E+02  1.250000000E+02  0.00000E+00  9.000E+00
       2     1     1     2   502     0  2.534858434E+01 -4.911855184E+01 -6.427589546E+02  6.451311933E+02  7.629394531E-06  0.00000E+00  9.000E+00
#rwgt            1           1   4.2876201289196607E-002           5      364201           0
</event>
<event>
      5   9999  3.79277E-02  2.20244E+01 -1.00000E+00  1.62987E-01
      21    -1     0     0   502   501  0.000000000E+00  0.000000000E+00  2.326132889E+02  2.326132889E+02  0.000000000E+00  0.00000E+00  9.000E+00
      21    -1     0     0   511   502  0.000000000E+00  0.000000000E+00 -2.199564802E+02  2.199564802E+02  0.000000000E+00  0.00000E+00  9.000E+00
      25     1     1     2     0     0 -9.812824895E+01 -4.043413581E+01 -4.884876385E+01  1.711001879E+02  1.250000000E+02  0.00000E+00  9.000E+00
      25     1     1     2     0     0  7.967226482E+01  5.245283087E+01  1.334465615E+02  2.062327666E+02  1.250000000E+02  0.00000E+00  9.000E+00
      21     1     1     2   511   501  1.845598413E+01 -1.201869506E+01 -7.194098894E+01  7.523681459E+01  9.536743164E-07  0.00000E+00  9.000E+00
#rwgt            1           1   4.0350630742148390E-002           5      364292           0
</event>
<event>
      5   9999  3.79277E-02  2.46300E+01 -1.00000E+00  1.59237E-01
      21    -1     0     0   512   501  0.000000000E+00  0.000000000E+00  1.698593083E+02  1.698593083E+02  0.000000000E+00  0.00000E+00  9.000E+00
      21    -1     0     0   501   502  0.000000000E+00  0.000000000E+00 -3.024756637E+02  3.024756637E+02  0.000000000E+00  0.00000E+00  9.000E+00
      25     1     1     2     0     0  6.854844458E+00  1.407697639E+02  3.528458316E+01  1.916588561E+02  1.250000000E+02  0.00000E+00  9.000E+00
      25     1     1     2     0     0  1.439220945E+01 -1.283118964E+02 -1.790119061E+02  2.536559500E+02  1.250000000E+02  0.00000E+00  9.000E+00
      21     1     1     2   512   502 -2.124705391E+01 -1.245786755E+01  1.111096758E+01  2.702016588E+01  4.616955931E-07  0.00000E+00  9.000E+00
#rwgt            1           1   4.3474310151899086E-002           5      364493           0
</event>
<event>
      5   9999  3.79277E-02  3.55669E+01 -1.00000E+00  1.48077E-01
      21    -1     0     0   502   501  0.000000000E+00  0.000000000E+00  4.175278273E+02  4.175278273E+02  0.000000000E+00  0.00000E+00  9.000E+00
      21    -1     0     0   501   511  0.000000000E+00  0.000000000E+00 -1.755597342E+02  1.755597342E+02  0.000000000E+00  0.00000E+00  9.000E+00
      25     1     1     2     0     0 -7.361746044E+01  8.030912835E+01  3.361140298E+02  3.747889107E+02  1.250000000E+02  0.00000E+00  9.000E+00
      25     1     1     2     0     0  3.906017663E+01 -7.189509756E+01 -1.032263143E+02  1.815909536E+02  1.250000000E+02  0.00000E+00  9.000E+00
      21     1     1     2   502   511  3.455728381E+01 -8.414030797E+00  9.080377734E+00  3.670769727E+01  5.717076687E-07  0.00000E+00  9.000E+00
#rwgt            1           1   4.3656977718416139E-002           5      364588           0
</event>
<event>
      5   9999 -3.79277E-02  6.31948E+01 -1.00000E+00  1.33510E-01
      21    -1     0     0   502   501  0.000000000E+00  0.000000000E+00  2.297776658E+01  2.297776658E+01  0.000000000E+00  0.00000E+00  9.000E+00
      21    -1     0     0   501   512  0.000000000E+00  0.000000000E+00 -2.972645773E+03  2.972645773E+03  0.000000000E+00  0.00000E+00  9.000E+00
      25     1     1     2     0     0  5.838387357E-01  1.497484844E+02 -1.055681551E+03  1.073551809E+03  1.250000000E+02  0.00000E+00  9.000E+00
      25     1     1     2     0     0  5.179178289E+01 -1.143878433E+02 -5.774688635E+02  6.040382900E+02  1.250000000E+02  0.00000E+00  9.000E+00
      21     1     1     2   502   512 -5.237562163E+01 -3.536064111E+01 -1.316517592E+03  1.318033441E+03  2.157918644E-05  0.00000E+00  9.000E+00
#rwgt            1           1 -0.14530686810551388                5      364867           0
</event>
<event>
      5   9999  3.79277E-02  3.47736E+01 -1.00000E+00  1.48715E-01
      21    -1     0     0   511   501  0.000000000E+00  0.000000000E+00  8.661904113E+02  8.661904113E+02  0.000000000E+00  0.00000E+00  9.000E+00
      21    -1     0     0   501   502  0.000000000E+00  0.000000000E+00 -6.654147877E+01  6.654147877E+01  0.000000000E+00  0.00000E+00  9.000E+00
      25     1     1     2     0     0 -1.516778697E+02 -1.287705380E+01  1.716979659E+02  2.612990359E+02  1.250000000E+02  0.00000E+00  9.000E+00
      25     1     1     2     0     0  1.404495897E+02  4.578802215E+01  4.457478439E+02  4.859411184E+02  1.250000000E+02  0.00000E+00  9.000E+00
      21     1     1     2   511   502  1.122828001E+01 -3.291096835E+01  1.822031227E+02  1.854917357E+02  0.000000000E+00  0.00000E+00  9.000E+00
#rwgt            1           1   3.9390865282332654E-002           5      364947           0
</event>
<event>
      5   9999  3.79277E-02  4.08088E+01 -1.00000E+00  1.44303E-01
      21    -1     0     0   502   501  0.000000000E+00  0.000000000E+00  7.359128367E+02  7.359128367E+02  0.000000000E+00  0.00000E+00  9.000E+00
      21    -1     0     0   512   502  0.000000000E+00  0.000000000E+00 -6.589707661E+02  6.589707661E+02  0.000000000E+00  0.00000E+00  9.000E+00
      25     1     1     2     0     0 -1.073639068E+02 -5.988780591E+02 -4.897779404E+01  6.230616041E+02  1.250000000E+02  0.00000E+00  9.000E+00
      25     1     1     2     0     0  8.322227155E+01  6.317800531E+02  2.065611326E+02  6.814429422E+02  1.250000000E+02  0.00000E+00  9.000E+00
      21     1     1     2   512   501  2.414163521E+01 -3.290199397E+01 -8.064126793E+01  9.037905649E+01  9.536743164E-07  0.00000E+00  9.000E+00
#rwgt            1           1   1.3885091903607854E-002           5      365251           0
</event>
<event>
      5   9999  3.79277E-02  9.66696E+01 -1.00000E+00  1.24493E-01
      21    -1     0     0   502   511  0.000000000E+00  0.000000000E+00  6.544321785E+01  6.544321785E+01  0.000000000E+00  0.00000E+00  9.000E+00
      21    -1     0     0   501   502  0.000000000E+00  0.000000000E+00 -1.463394606E+03  1.463394606E+03  0.000000000E+00  0.00000E+00  9.000E+00
      25     1     1     2     0     0  1.382305813E+02  3.457692431E+01 -5.252926905E+02  5.584448657E+02  1.250000000E+02  0.00000E+00  9.000E+00
      25     1     1     2     0     0 -2.094047678E+02 -9.999289792E+01 -8.178334928E+02  8.592587261E+02  1.250000000E+02  0.00000E+00  9.000E+00
      21     1     1     2   501   511  7.117418652E+01  6.541597360E+01 -5.482520463E+01  1.111342319E+02  2.023048729E-06  0.00000E+00  9.000E+00
#rwgt            2          11   2.3138317958676905E-003           5      365589           0
</event>
<event>
      5   9999  3.79277E-02  1.39977E+01 -1.00000E+00  1.80261E-01
      21    -1     0     0   502   501  0.000000000E+00  0.000000000E+00  5.801154146E+01  5.801154146E+01  0.000000000E+00  0.00000E+00  9.000E+00
      21    -1     0     0   501   512  0.000000000E+00  0.000000000E+00 -7.420201694E+02  7.420201694E+02  0.000000000E+00  0.00000E+00  9.000E+00
      25     1     1     2     0     0 -1.065447792E+01 -7.226519279E+01 -5.909893862E+01  1.563760229E+02  1.250000000E+02  0.00000E+00  9.000E+00
      25     1     1     2     0     0  1.720087052E+01  5.989259777E+01 -5.818013774E+02  5.983317107E+02  1.250000000E+02  0.00000E+00  9.000E+00
      21     1     1     2   502   512 -6.546392605E+00  1.237259502E+01 -4.310831185E+01  4.532397725E+01  9.536743164E-07  0.00000E+00  9.000E+00
#rwgt            1           1   3.7359728128521341E-002           5      365729           0
</event>
<event>
      5   9999  3.79277E-02  1.40338E+02 -1.00000E+00  1.17551E-01
       2    -1     0     0   502     0  0.000000000E+00  0.000000000E+00  1.177009203E+03  1.177009203E+03  0.000000000E+00  0.00000E+00  9.000E+00
      21    -1     0     0   501   502  0.000000000E+00  0.000000000E+00 -1.077692157E+02  1.077692157E+02  0.000000000E+00  0.00000E+00  9.000E+00
      25     1     1     2     0     0 -9.072181220E+01 -1.411147780E+01  7.936763276E+01  1.742234259E+02  1.250000000E+02  0.00000E+00  9.000E+00
      25     1     1     2     0     0  1.275008409E+02 -1.213216806E+02  1.594919016E+02  2.683991082E+02  1.250000000E+02  0.00000E+00  9.000E+00
       2     1     1     2   501     0 -3.677902866E+01  1.354331584E+02  8.303804531E+02  8.421558847E+02  1.078959322E-05  0.00000E+00  9.000E+00
#rwgt            1           1   4.2217595554427806E-002           5      366084           0
</event>
<event>
      5   9999  3.79277E-02  4.66250E+01 -1.00000E+00  1.40830E-01
      21    -1     0     0   502   501  0.000000000E+00  0.000000000E+00  2.846297591E+02  2.846297591E+02  0.000000000E+00  0.00000E+00  9.000E+00
      21    -1     0     0   501   511  0.000000000E+00  0.000000000E+00 -4.445745033E+02  4.445745033E+02  0.000000000E+00  0.00000E+00  9.000E+00
      25     1     1     2     0     0  2.015056994E+02  3.996969671E+01  2.237865446E+01  2.415117549E+02  1.250000000E+02  0.00000E+00  9.000E+00
      25     1     1     2     0     0 -1.703031340E+02 -5.324436709E+00  7.647095727E+01  2.247316497E+02  1.250000000E+02  0.00000E+00  9.000E+00
      21     1     1     2   502   511 -3.120256540E+01 -3.464526000E+01 -2.587943558E+02  2.629608578E+02  3.814697266E-06  0.00000E+00  9.000E+00
#rwgt            1           1   2.0504386969544219E-002           5      366176           0
</event>
<event>
      5   9999  3.79277E-02  6.49497E+01 -1.00000E+00  1.32889E-01
      21    -1     0     0   502   512  0.000000000E+00  0.000000000E+00  1.366159046E+03  1.366159046E+03  0.000000000E+00  0.00000E+00  9.000E+00
      21    -1     0     0   501   502  0.000000000E+00  0.000000000E+00 -7.771096111E+01  7.771096111E+01  0.000000000E+00  0.00000E+00  9.000E+00
      25     1     1     2     0     0 -8.581068463E+01  1.982262417E+02  3.478726581E+02  4.281325762E+02  1.250000000E+02  0.00000E+00  9.000E+00
      25     1     1     2     0     0  1.114605532E+02 -1.385559217E+02  2.925269014E+02  3.644422950E+02  1.250000000E+02  0.00000E+00  9.000E+00
      21     1     1     2   501   512 -2.564986860E+01 -5.967032006E+01  6.480485257E+02  6.512951362E+02  1.078959322E-05  0.00000E+00  9.000E+00
#rwgt            1           1   4.0994633996810186E-002           5      366320           0
</event>
<event>
      5   9999  3.79277E-02  1.72933E+02 -1.00000E+00  1.13996E-01
      21    -1     0     0   502   511  0.000000000E+00  0.000000000E+00  3.412745280E+02  3.412745280E+02  0.000000000E+00  0.00000E+00  9.000E+00
      21    -1     0     0   501   502  0.000000000E+00  0.000000000E+00 -2.634904736E+02  2.634904736E+02  0.000000000E+00  0.00000E+00  9.000E+00
      25     1     1     2     0     0 -1.907814943E+01  1.629762926E+02 -1.438271302E+01  2.067779248E+02  1.250000000E+02  0.00000E+00  9.000E+00
      25     1     1     2     0     0 -1.039260459E+02 -4.142121637E+01 -4.898764290E+01  1.747602052E+02  1.250000000E+02  0.00000E+00  9.000E+00
      21     1     1     2   501   511  1.230041953E+02 -1.215550763E+02  1.411544103E+02  2.232268716E+02  4.672030912E-06  0.00000E+00  9.000E+00
#rwgt            1           1   3.4272705198254046E-002           5      366377           0
</event>
<event>
      5   9999  3.79277E-02  1.60598E+02 -1.00000E+00  1.15231E-01
      21    -1     0     0   502   501  0.000000000E+00  0.000000000E+00  1.126214082E+02  1.126214082E+02  0.000000000E+00  0.00000E+00  9.000E+00
       2    -1     0     0   501     0  0.000000000E+00  0.000000000E+00 -2.207168213E+03  2.207168213E+03  0.000000000E+00  0.00000E+00  9.000E+00
      25     1     1     2     0     0  5.443972677E+01  9.788549359E+01 -4.627807769E+02  4.922766510E+02  1.250000000E+02  0.00000E+00  9.000E+00
      25     1     1     2     0     0  5.312517162E+01  2.136873358E+01  4.377582334E+01  1.442921666E+02  1.250000000E+02  0.00000E+00  9.000E+00
       2     1     1     2   502     0 -1.075648984E+02 -1.192542272E+02 -1.675541852E+03  1.683220804E+03  3.051757812E-05  0.00000E+00  9.000E+00
#rwgt            1           1   4.3196029952342146E-002           5      366430           0
</event>
<event>
      5   9999  3.79277E-02  3.15898E+01 -1.00000E+00  1.51498E-01
      21    -1     0     0   502   511  0.000000000E+00  0.000000000E+00  1.197878977E+02  1.197878977E+02  0.000000000E+00  0.00000E+00  9.000E+00
      21    -1     0     0   501   502  0.000000000E+00  0.000000000E+00 -2.070831281E+03  2.070831281E+03  0.000000000E+00  0.00000E+00  9.000E+00
      25     1     1     2     0     0  2.683456571E+02 -1.440566932E+01 -1.784195540E+03  1.808644697E+03  1.250000000E+02  0.00000E+00  9.000E+00
      25     1     1     2     0     0 -2.853673223E+02 -1.220599236E+01 -1.473155040E+02  3.448338043E+02  1.250000000E+02  0.00000E+00  9.000E+00
      21     1     1     2   501   511  1.702166519E+01  2.661166168E+01 -1.953233876E+01  3.714067690E+01  6.743495762E-07  0.00000E+00  9.000E+00
#rwgt            1           1  0.13699878581353919                5      366499           0
</event>
<event>
      5   9999  3.79277E-02  1.04091E+02 -1.00000E+00  1.23050E-01
      21    -1     0     0   502   501  0.000000000E+00  0.000000000E+00  8.743566043E+01  8.743566043E+01  0.000000000E+00  0.00000E+00  9.000E+00
      21    -1     0     0   501   512  0.000000000E+00  0.000000000E+00 -1.362679317E+03  1.362679317E+03  0.000000000E+00  0.00000E+00  9.000E+00
      25     1     1     2     0     0 -7.973501847E+01 -6.434575108E+01 -9.053455392E+02  9.196594990E+02  1.250000000E+02  0.00000E+00  9.000E+00
      25     1     1     2     0     0  4.813690193E+01 -3.483338274E+01  7.852267198E+00  1.386260581E+02  1.250000000E+02  0.00000E+00  9.000E+00
      21     1     1     2   502   512  3.159811654E+01  9.917913382E+01 -3.777503842E+02  3.918294199E+02  5.394796609E-06  0.00000E+00  9.000E+00
#rwgt            1           1   4.5787591412347887E-002           5      366798           0
</event>
<event>
      5   9999  3.79277E-02  2.18635E+01 -1.00000E+00  1.63239E-01
      21    -1     0     0   502   511  0.000000000E+00  0.000000000E+00  1.440176468E+03  1.440176468E+03  0.000000000E+00  0.00000E+00  9.000E+00
      21    -1     0     0   501   502  0.000000000E+00  0.000000000E+00 -8.994586028E+01  8.994586028E+01  0.000000000E+00  0.00000E+00  9.000E+00
      25     1     1     2     0     0  1.744387840E+02  5.842020805E+01  4.696183744E+02  5.196231592E+02  1.250000000E+02  0.00000E+00  9.000E+00
      25     1     1     2     0     0 -1.587924049E+02 -7.369122736E+01  1.137587690E+02  2.433340962E+02  1.250000000E+02  0.00000E+00  9.000E+00
      21     1     1     2   501   511 -1.564637913E+01  1.527101931E+01  7.668534640E+02  7.671650725E+02  0.000000000E+00  0.00000E+00  9.000E+00
#rwgt            1           1   3.9888784544173404E-002           5      366901           0
</event>
<event>
      5   9999 -3.79277E-02  7.52502E+01 -1.00000E+00  1.29649E-01
      21    -1     0     0   502   501  0.000000000E+00  0.000000000E+00  6.821610510E+02  6.821610510E+02  0.000000000E+00  0.00000E+00  9.000E+00
      21    -1     0     0   512   502  0.000000000E+00  0.000000000E+00 -5.229117174E+02  5.229117174E+02  0.000000000E+00  0.00000E+00  9.000E+00
      25     1     1     2     0     0 -2.493498194E+01  3.511200544E+02  4.568257230E+02  5.901032004E+02  1.250000000E+02  0.00000E+00  9.000E+00
      25     1     1     2     0     0  2.041363734E+01 -4.262342620E+02 -3.052236282E+02  5.393318328E+02  1.250000000E+02  0.00000E+00  9.000E+00
      21     1     1     2   512   501  4.521344598E+00  7.511420757E+01  7.647238811E+00  7.563773527E+01  5.900558792E-07  0.00000E+00  9.000E+00
#rwgt            1           1  -8.8554907159771018E-002           5      367295           0
</event>
<event>
      5   9999  3.79277E-02  2.29634E+01 -1.00000E+00  1.61566E-01
      21    -1     0     0   511   501  0.000000000E+00  0.000000000E+00  2.204716198E+02  2.204716198E+02  0.000000000E+00  0.00000E+00  9.000E+00
      21    -1     0     0   501   502  0.000000000E+00  0.000000000E+00 -4.225891148E+02  4.225891148E+02  0.000000000E+00  0.00000E+00  9.000E+00
      25     1     1     2     0     0 -6.658526714E+01 -8.909336153E+01 -7.345460927E+01  1.827342455E+02  1.250000000E+02  0.00000E+00  9.000E+00
      25     1     1     2     0     0  5.289986940E+01  7.065350899E+01 -2.736523695E+02  3.135297974E+02  1.250000000E+02  0.00000E+00  9.000E+00
      21     1     1     2   511   502  1.368539774E+01  1.843985254E+01  1.449894838E+02  1.467966916E+02  2.697398305E-06  0.00000E+00  9.000E+00
#rwgt            1           1   4.1960403186040759E-002           5      367388           0
</event>
<event>
      5   9999  3.79277E-02  2.21540E+01 -1.00000E+00  1.62785E-01
      21    -1     0     0   502   512  0.000000000E+00  0.000000000E+00  4.692711023E+02  4.692711023E+02  0.000000000E+00  0.00000E+00  9.000E+00
      21    -1     0     0   501   502  0.000000000E+00  0.000000000E+00 -9.195277994E+01  9.195277994E+01  0.000000000E+00  0.00000E+00  9.000E+00
      25     1     1     2     0     0 -5.137318512E+01  4.805787701E+01  1.920391962E+02  2.396931717E+02  1.250000000E+02  0.00000E+00  9.000E+00
      25     1     1     2     0     0  2.954738090E+01 -4.425845700E+01  9.340796350E-01  1.358592332E+02  1.250000000E+02  0.00000E+00  9.000E+00
      21     1     1     2   501   512  2.182580423E+01 -3.799420018E+00  1.843450465E+02  1.856714774E+02  0.000000000E+00  0.00000E+00  9.000E+00
#rwgt            1           1   4.0468910904435294E-002           5      367607           0
</event>
<event>
      5   9999  3.79277E-02  2.69444E+01 -1.00000E+00  1.56352E-01
      21    -1     0     0   502   501  0.000000000E+00  0.000000000E+00  5.016021094E+02  5.016021094E+02  0.000000000E+00  0.00000E+00  9.000E+00
      21    -1     0     0   511   502  0.000000000E+00  0.000000000E+00 -1.061062889E+02  1.061062889E+02  0.000000000E+00  0.00000E+00  9.000E+00
      25     1     1     2     0     0  6.947044345E+01 -1.479133828E+02  1.569546557E+02  2.587745646E+02  1.250000000E+02  0.00000E+00  9.000E+00
      25     1     1     2     0     0 -8.522573716E+01  1.697713077E+02  2.184130954E+02  3.153014485E+02  1.250000000E+02  0.00000E+00  9.000E+00
      21     1     1     2   511   501  1.575529371E+01 -2.185792492E+01  2.012806933E+01  3.363238523E+01  2.384185791E-07  0.00000E+00  9.000E+00
#rwgt            1           1   3.0950798810296800E-002           5      367779           0
</event>
<event>
      5   9999  3.79277E-02  1.35368E+02 -1.00000E+00  1.18188E-01
      -2    -1     0     0     0   501  0.000000000E+00  0.000000000E+00  1.489574832E+03  1.489574832E+03  0.000000000E+00  0.00000E+00  9.000E+00
      21    -1     0     0   501   502  0.000000000E+00  0.000000000E+00 -1.412243181E+02  1.412243181E+02  0.000000000E+00  0.00000E+00  9.000E+00
      25     1     1     2     0     0  3.812507833E+01 -6.252512166E+01 -8.322760742E+01  1.670770693E+02  1.250000000E+02  0.00000E+00  9.000E+00
      25     1     1     2     0     0 -6.773585504E-01 -6.756004246E+01  4.259699011E+02  4.490436223E+02  1.250000000E+02  0.00000E+00  9.000E+00
      -2     1     1     2     0   502 -3.744771978E+01  1.300851641E+02  1.005608220E+03  1.014678459E+03  1.525878906E-05  0.00000E+00  9.000E+00
#rwgt            1           1   3.6600192913682286E-002           5      367915           0
</event>
<event>
      5   9999  3.79277E-02  8.38441E+01 -1.00000E+00  1.27371E-01
      21    -1     0     0   502   511  0.000000000E+00  0.000000000E+00  1.608112348E+02  1.608112348E+02  0.000000000E+00  0.00000E+00  9.000E+00
      21    -1     0     0   501   502  0.000000000E+00  0.000000000E+00 -1.069708978E+03  1.069708978E+03  0.000000000E+00  0.00000E+00  9.000E+00
      25     1     1     2     0     0 -2.166652053E+02  1.605544708E+02 -2.218866050E+02  3.709180702E+02  1.250000000E+02  0.00000E+00  9.000E+00
      25     1     1     2     0     0  1.329617826E+02 -1.654101749E+02 -7.263603816E+02  7.669835497E+02  1.250000000E+02  0.00000E+00  9.000E+00
      21     1     1     2   501   511  8.370342272E+01  4.855704186E+00  3.934924325E+01  9.261859307E+01  2.567846683E-06  0.00000E+00  9.000E+00
#rwgt            1           1   2.7136700283957635E-002           5      368009           0
</event>
<event>
      5   9999  3.79277E-02  2.21995E+01 -1.00000E+00  1.62715E-01
      21    -1     0     0   512   501  0.000000000E+00  0.000000000E+00  1.009888270E+02  1.009888270E+02  0.000000000E+00  0.00000E+00  9.000E+00
      21    -1     0     0   501   502  0.000000000E+00  0.000000000E+00 -3.939918303E+02  3.939918303E+02  0.000000000E+00  0.00000E+00  9.000E+00
      25     1     1     2     0     0  6.664176038E+01 -1.217464475E+02 -1.045346095E+02  2.140462714E+02  1.250000000E+02  0.00000E+00  9.000E+00
      25     1     1     2     0     0 -7.920418299E+01  1.034434100E+02 -1.849330847E+02  2.584551944E+02  1.250000000E+02  0.00000E+00  9.000E+00
      21     1     1     2   512   502  1.256242261E+01  1.830303743E+01 -3.535309086E+00  2.247919152E+01  3.551356580E-07  0.00000E+00  9.000E+00
#rwgt            1           1   3.1867458101392583E-002           5      368121           0
</event>
<event>
      5   9999  3.79277E-02  8.80371E+01 -1.00000E+00  1.26369E-01
      21    -1     0     0   502   511  0.000000000E+00  0.000000000E+00  3.966565750E+02  3.966565750E+02  0.000000000E+00  0.00000E+00  9.000E+00
      21    -1     0     0   501   502  0.000000000E+00  0.000000000E+00 -5.055124179E+02  5.055124179E+02  0.000000000E+00  0.00000E+00  9.000E+00
      25     1     1     2     0     0 -7.878877635E+01 -3.441660872E+02 -1.082501923E+02  3.898731473E+02  1.250000000E+02  0.00000E+00  9.000E+00
      25     1     1     2     0     0 -8.629551160E+00  3.545858524E+02 -9.014519851E+01  3.867256814E+02  1.250000000E+02  0.00000E+00  9.000E+00
      21     1     1     2   501   511  8.741832751E+01 -1.041976522E+01  8.953954786E+01  1.255701641E+02  1.348699152E-06  0.00000E+00  9.000E+00
#rwgt            1           1   3.4120084715102202E-002           5      368257           0
</event>
<event>
      5   9999  3.79277E-02  6.44431E+00 -1.00000E+00  2.20759E-01
      21    -1     0     0   502   501  0.000000000E+00  0.000000000E+00  3.952445669E+02  3.952445669E+02  0.000000000E+00  0.00000E+00  9.000E+00
      21    -1     0     0   501   512  0.000000000E+00  0.000000000E+00 -1.091623608E+02  1.091623608E+02  0.000000000E+00  0.00000E+00  9.000E+00
      25     1     1     2     0     0  3.523406011E+01 -6.954230072E+01  3.112121047E+02  3.443189578E+02  1.250000000E+02  0.00000E+00  9.000E+00
      25     1     1     2     0     0 -3.641330918E+01  7.587780028E+01 -2.757546516E+01  1.531952217E+02  1.250000000E+02  0.00000E+00  9.000E+00
      21     1     1     2   502   512  1.179249067E+00 -6.335499564E+00  2.445566455E+00  6.892748246E+00  8.940696716E-08  0.00000E+00  9.000E+00
#rwgt            1           1   5.1657250305451763E-002           5      368335           0
</event>
<event>
      5   9999  3.79277E-02  7.55939E+01 -1.00000E+00  1.29552E-01
      21    -1     0     0   502   501  0.000000000E+00  0.000000000E+00  4.371378917E+02  4.371378917E+02  0.000000000E+00  0.00000E+00  9.000E+00
       1    -1     0     0   501     0  0.000000000E+00  0.000000000E+00 -1.471913347E+02  1.471913347E+02  0.000000000E+00  0.00000E+00  9.000E+00
      25     1     1     2     0     0  8.640927409E+01 -8.488118144E+01  2.839371376E+02  3.330415525E+02  1.250000000E+02  0.00000E+00  9.000E+00
      25     1     1     2     0     0 -1.084719365E+01  8.268729616E+01  5.632967846E+01  1.604770489E+02  1.250000000E+02  0.00000E+00  9.000E+00
       1     1     1     2   502     0 -7.556208044E+01  2.193885279E+00 -5.032025911E+01  9.081062498E+01  9.536743164E-07  0.00000E+00  9.000E+00
#rwgt            1           1   2.3784372581075543E-002           5      368757           0
</event>
<event>
      5   9999  3.79277E-02  1.86799E+01 -1.00000E+00  1.68854E-01
      21    -1     0     0   502   501  0.000000000E+00  0.000000000E+00  4.657159718E+02  4.657159718E+02  0.000000000E+00  0.00000E+00  9.000E+00
      21    -1     0     0   501   511  0.000000000E+00  0.000000000E+00 -7.440984040E+01  7.440984040E+01  0.000000000E+00  0.00000E+00  9.000E+00
      25     1     1     2     0     0  9.263473678E+01 -6.251217543E+01  1.670896616E+02  2.367127405E+02  1.250000000E+02  0.00000E+00  9.000E+00
      25     1     1     2     0     0 -8.697801611E+01  8.031494444E+01  2.265972442E+02  2.845821088E+02  1.250000000E+02  0.00000E+00  9.000E+00
      21     1     1     2   502   511 -5.656720665E+00 -1.780276901E+01 -2.380774391E+00  1.883096280E+01  2.827296549E-07  0.00000E+00  9.000E+00
#rwgt            1           1   4.8991946980829017E-002           5      368841           0
</event>
<event>
      5   9999  3.79277E-02  6.67798E+01 -1.00000E+00  1.32265E-01
      21    -1     0     0   502   501  0.000000000E+00  0.000000000E+00  2.294827876E+02  2.294827876E+02  0.000000000E+00  0.00000E+00  9.000E+00
      21    -1     0     0   512   502  0.000000000E+00  0.000000000E+00 -3.727941543E+02  3.727941543E+02  0.000000000E+00  0.00000E+00  9.000E+00
      25     1     1     2     0     0  1.785566978E+02 -1.329114214E+02 -1.322946955E+02  2.875323056E+02  1.250000000E+02  0.00000E+00  9.000E+00
      25     1     1     2     0     0 -1.161585614E+02  1.091202386E+02  6.579291158E+01  2.129641873E+02  1.250000000E+02  0.00000E+00  9.000E+00
      21     1     1     2   512   501 -6.239813646E+01  2.379118280E+01 -7.680958281E+01  1.017804491E+02  0.000000000E+00  0.00000E+00  9.000E+00
#rwgt            1           1   3.6814525403033753E-002           5      369001           0
</event>
<event>
      5   9999  3.79277E-02  4.78198E+01 -1.00000E+00  1.40189E-01
      21    -1     0     0   511   501  0.000000000E+00  0.000000000E+00  4.874085757E+02  4.874085757E+02  0.000000000E+00  0.00000E+00  9.000E+00
      21    -1     0     0   501   502  0.000000000E+00  0.000000000E+00 -1.293377941E+02  1.293377941E+02  0.000000000E+00  0.00000E+00  9.000E+00
      25     1     1     2     0     0 -1.076849641E+02 -1.120740134E+02  2.905722503E+01  2.015588209E+02  1.250000000E+02  0.00000E+00  9.000E+00
      25     1     1     2     0     0  1.379091698E+02  7.501693079E+01  2.300606378E+02  3.052857286E+02  1.250000000E+02  0.00000E+00  9.000E+00
      21     1     1     2   511   502 -3.022420570E+01  3.705708256E+01  9.895291875E+01  1.099018203E+02  1.348699152E-06  0.00000E+00  9.000E+00
#rwgt            1           1   7.1205258427115850E-002           5      369113           0
</event>
<event>
      5   9999  3.79277E-02  1.02697E+01 -1.00000E+00  1.94431E-01
       2    -1     0     0   502     0  0.000000000E+00  0.000000000E+00  5.420536582E+02  5.420536582E+02  0.000000000E+00  0.00000E+00  9.000E+00
      21    -1     0     0   501   502  0.000000000E+00  0.000000000E+00 -7.463434210E+02  7.463434210E+02  0.000000000E+00  0.00000E+00  9.000E+00
      25     1     1     2     0     0  7.754614111E+01  1.227970542E+02 -6.884249301E+02  7.145952735E+02  1.250000000E+02  0.00000E+00  9.000E+00
      25     1     1     2     0     0 -6.915284240E+01 -1.287147088E+02  1.618033140E+02  2.513063953E+02  1.250000000E+02  0.00000E+00  9.000E+00
       2     1     1     2   501     0 -8.393298712E+00  5.917654649E+00  3.223318533E+02  3.224954104E+02  3.814697266E-06  0.00000E+00  9.000E+00
#rwgt            1           1   4.5932897407059317E-002           5      369214           0
</event>
<event>
      5   9999  3.79277E-02  1.96126E+01 -1.00000E+00  1.67073E-01
      21    -1     0     0   511   501  0.000000000E+00  0.000000000E+00  1.648573235E+02  1.648573235E+02  0.000000000E+00  0.00000E+00  9.000E+00
      21    -1     0     0   501   502  0.000000000E+00  0.000000000E+00 -4.234274311E+02  4.234274311E+02  0.000000000E+00  0.00000E+00  9.000E+00
      25     1     1     2     0     0 -2.037806706E+02  1.116828113E+01 -7.354313220E+01  2.503694959E+02  1.250000000E+02  0.00000E+00  9.000E+00
      25     1     1     2     0     0  2.232449175E+02 -1.357569067E+01 -1.883819028E+02  3.180178200E+02  1.250000000E+02  0.00000E+00  9.000E+00
      21     1     1     2   511   502 -1.946424690E+01  2.407409537E+00  3.354927457E+00  1.989743868E+01  4.339283639E-07  0.00000E+00  9.000E+00
#rwgt            1           1   3.0986855638146186E-002           5      369534           0
</event>
<event>
      5   9999  3.79277E-02  5.63742E+01 -1.00000E+00  1.36166E-01
      21    -1     0     0   502   512  0.000000000E+00  0.000000000E+00  1.532434858E+02  1.532434858E+02  0.000000000E+00  0.00000E+00  9.000E+00
      21    -1     0     0   501   502  0.000000000E+00  0.000000000E+00 -1.301227923E+03  1.301227923E+03  0.000000000E+00  0.00000E+00  9.000E+00
      25     1     1     2     0     0 -2.665968943E+02 -1.121159730E+02 -4.843042942E+02  5.777711873E+02  1.250000000E+02  0.00000E+00  9.000E+00
      25     1     1     2     0     0  3.034538966E+02  1.547728925E+02 -7.141430282E+02  8.010394375E+02  1.250000000E+02  0.00000E+00  9.000E+00
      21     1     1     2   501   512 -3.685700235E+01 -4.265691946E+01  5.046288548E+01  7.566078384E+01  1.168007728E-06  0.00000E+00  9.000E+00
#rwgt            1           1   3.6518795979820232E-002           5      369712           0
</event>
<event>
      5   9999  3.79277E-02  1.61583E+02 -1.00000E+00  1.15128E-01
      21    -1     0     0   502   501  0.000000000E+00  0.000000000E+00  6.405368887E+02  6.405368887E+02  0.000000000E+00  0.00000E+00  9.000E+00
      21    -1     0     0   511   502  0.000000000E+00  0.000000000E+00 -3.630871891E+02  3.630871891E+02  0.000000000E+00  0.00000E+00  9.000E+00
      25     1     1     2     0     0 -1.611692653E+02 -3.465293993E+01  4.045112307E+01  2.108023996E+02  1.250000000E+02  0.00000E+00  9.000E+00
      25     1     1     2     0     0  2.859323082E+00  6.700964028E+01  4.802672476E+02  5.007794891E+02  1.250000000E+02  0.00000E+00  9.000E+00
      21     1     1     2   511   501  1.583099422E+02 -3.235670034E+01 -2.432686711E+02  2.920421890E+02  2.697398305E-06  0.00000E+00  9.000E+00
#rwgt            1           1   4.9945258555270447E-002           5      369771           0
</event>
<event>
      5   9999  3.79277E-02  2.77717E+01 -1.00000E+00  1.55405E-01
      21    -1     0     0   502   501  0.000000000E+00  0.000000000E+00  3.878862290E+01  3.878862290E+01  0.000000000E+00  0.00000E+00  9.000E+00
      21    -1     0     0   512   502  0.000000000E+00  0.000000000E+00 -2.797605382E+03  2.797605382E+03  0.000000000E+00  0.00000E+00  9.000E+00
      25     1     1     2     0     0  1.297181393E+02 -2.496815704E+02 -1.382056832E+03  1.415935651E+03  1.250000000E+02  0.00000E+00  9.000E+00
      25     1     1     2     0     0 -1.468176389E+02  2.277984125E+02 -1.023977086E+03  1.066584084E+03  1.250000000E+02  0.00000E+00  9.000E+00
      21     1     1     2   512   501  1.709949963E+01  2.188315791E+01 -3.527828418E+02  3.538742700E+02  5.394796609E-06  0.00000E+00  9.000E+00
#rwgt            1           1   8.7471326780150085E-002           5      369853           0
</event>
<event>
      5   9999  3.79277E-02  1.55694E+01 -1.00000E+00  1.75873E-01
      21    -1     0     0   502   501  0.000000000E+00  0.000000000E+00  9.046941425E+02  9.046941425E+02  0.000000000E+00  0.00000E+00  9.000E+00
       3    -1     0     0   501     0  0.000000000E+00  0.000000000E+00 -7.850942808E+01  7.850942808E+01  0.000000000E+00  0.00000E+00  9.000E+00
      25     1     1     2     0     0  9.520070419E+01 -3.684051032E+01  5.166256478E+02  5.412462076E+02  1.250000000E+02  0.00000E+00  9.000E+00
      25     1     1     2     0     0 -8.017000330E+01  3.278058455E+01  3.591286221E+02  3.900002095E+02  1.250000000E+02  0.00000E+00  9.000E+00
       3     1     1     2   502     0 -1.503070089E+01  4.059925769E+00 -4.956955552E+01  5.195715351E+01  2.431401974E-06  0.00000E+00  9.000E+00
#rwgt            1           1   5.3197515318351325E-002           5      369990           0
</event>
<event>
      5   9999  3.79277E-02  3.77317E+01 -1.00000E+00  1.46430E-01
      21    -1     0     0   502   511  0.000000000E+00  0.000000000E+00  2.059817465E+02  2.059817465E+02  0.000000000E+00  0.00000E+00  9.000E+00
      21    -1     0     0   501   502  0.000000000E+00  0.000000000E+00 -3.437357475E+02  3.437357475E+02  0.000000000E+00  0.00000E+00  9.000E+00
      25     1     1     2     0     0  1.341814697E+02  1.561312003E+02 -8.296472163E+01  2.547346924E+02  1.250000000E+02  0.00000E+00  9.000E+00
      25     1     1     2     0     0 -1.097969583E+02 -1.273375060E+02 -1.032446516E+02  2.335694127E+02  1.250000000E+02  0.00000E+00  9.000E+00
      21     1     1     2   501   511 -2.438451136E+01 -2.879369432E+01  4.845537221E+01  6.141338880E+01  6.743495762E-07  0.00000E+00  9.000E+00
#rwgt            1           1   4.2532346731365606E-002           5      370200           0
</event>
<event>
      5   9999  3.79277E-02  8.03181E+01 -1.00000E+00  1.28266E-01
      21    -1     0     0   502   501  0.000000000E+00  0.000000000E+00  1.674427807E+03  1.674427807E+03  0.000000000E+00  0.00000E+00  9.000E+00
      21    -1     0     0   512   502  0.000000000E+00  0.000000000E+00 -5.214302543E+02  5.214302543E+02  0.000000000E+00  0.00000E+00  9.000E+00
      25     1     1     2     0     0 -1.663296796E+02 -1.533698273E+02  4.820296624E+02  5.469602012E+02  1.250000000E+02  0.00000E+00  9.000E+00
      25     1     1     2     0     0  2.372028322E+02  1.155811225E+02  1.138077227E+03  1.174933596E+03  1.250000000E+02  0.00000E+00  9.000E+00
      21     1     1     2   512   501 -7.087315260E+01  3.778870481E+01 -4.671093376E+02  4.739642637E+02  7.629394531E-06  0.00000E+00  9.000E+00
#rwgt            1           1   3.3787207278701270E-002           5      370436           0
</event>
<event>
      5   9999  3.79277E-02  1.45903E+01 -1.00000E+00  1.78524E-01
      21    -1     0     0   502   501  0.000000000E+00  0.000000000E+00  3.619973776E+01  3.619973776E+01  0.000000000E+00  0.00000E+00  9.000E+00
      21    -1     0     0   511   502  0.000000000E+00  0.000000000E+00 -2.562345374E+03  2.562345374E+03  0.000000000E+00  0.00000E+00  9.000E+00
      25     1     1     2     0     0  2.535676289E+02  6.892124554E+01 -1.167271110E+03  1.202993568E+03  1.250000000E+02  0.00000E+00  9.000E+00
      25     1     1     2     0     0 -2.535371105E+02 -5.433093076E+01 -1.125671001E+03  1.161892042E+03  1.250000000E+02  0.00000E+00  9.000E+00
      21     1     1     2   511   501 -3.051845894E-02 -1.459031478E+01 -2.332035257E+02  2.336595014E+02  4.672030912E-06  0.00000E+00  9.000E+00
#rwgt            1           1   7.9742912387076967E-002           5      370512           0
</event>
<event>
      5   9999  3.79277E-02  6.82808E+01 -1.00000E+00  1.31770E-01
      21    -1     0     0   502   501  0.000000000E+00  0.000000000E+00  1.284759903E+02  1.284759903E+02  0.000000000E+00  0.00000E+00  9.000E+00
      21    -1     0     0   512   502  0.000000000E+00  0.000000000E+00 -6.725004150E+02  6.725004150E+02  0.000000000E+00  0.00000E+00  9.000E+00
      25     1     1     2     0     0 -1.536192420E+00 -1.855447187E+02 -2.158869970E+01  2.247671561E+02  1.250000000E+02  0.00000E+00  9.000E+00
      25     1     1     2     0     0  3.374123739E+00  1.172886565E+02 -4.136321417E+02  4.477550249E+02  1.250000000E+02  0.00000E+00  9.000E+00
      21     1     1     2   512   501 -1.837931318E+00  6.825606218E+01 -1.088035833E+02  1.284542244E+02  1.907348633E-06  0.00000E+00  9.000E+00
#rwgt            1           1   4.2094075252165609E-002           5      370709           0
</event>
<event>
      5   9999  3.79277E-02  1.49629E+01 -1.00000E+00  1.77485E-01
      21    -1     0     0   502   511  0.000000000E+00  0.000000000E+00  1.035911726E+02  1.035911726E+02  0.000000000E+00  0.00000E+00  9.000E+00
      21    -1     0     0   501   502  0.000000000E+00  0.000000000E+00 -5.765709688E+02  5.765709688E+02  0.000000000E+00  0.00000E+00  9.000E+00
      25     1     1     2     0     0 -6.387278780E+01 -1.185128479E+02 -2.972210856E+01  1.861005961E+02  1.250000000E+02  0.00000E+00  9.000E+00
      25     1     1     2     0     0  7.673821957E+01  1.108728847E+02 -4.423851315E+02  4.790732256E+02  1.250000000E+02  0.00000E+00  9.000E+00
      21     1     1     2   501   511 -1.286543178E+01  7.639963193E+00 -8.725560981E-01  1.498831967E+01  1.815864087E-07  0.00000E+00  9.000E+00
#rwgt            1           1   3.9784710005771072E-002           5      370814           0
</event>
<event>
      5   9999  3.79277E-02  4.43787E+01 -1.00000E+00  1.42097E-01
      21    -1     0     0   512   501  0.000000000E+00  0.000000000E+00  1.250170623E+02  1.250170623E+02  0.000000000E+00  0.00000E+00  9.000E+00
      21    -1     0     0   501   502  0.000000000E+00  0.000000000E+00 -4.627797143E+02  4.627797143E+02  0.000000000E+00  0.00000E+00  9.000E+00
      25     1     1     2     0     0 -7.472416864E+01 -1.269596190E+02 -2.389685464E+02  3.073001992E+02  1.250000000E+02  0.00000E+00  9.000E+00
      25     1     1     2     0     0  3.077435617E+01  1.208046293E+02 -1.357887910E+02  2.227204867E+02  1.250000000E+02  0.00000E+00  9.000E+00
      21     1     1     2   512   502  4.394981247E+01  6.154989683E+00  3.699468531E+01  5.777609070E+01  9.536743164E-07  0.00000E+00  9.000E+00
#rwgt            1           1   3.6934667875878638E-002           5      371013           0
</event>
<event>
      5   9999  3.79277E-02  5.14937E+01 -1.00000E+00  1.38350E-01
      21    -1     0     0   502   501  0.000000000E+00  0.000000000E+00  9.522611573E+02  9.522611573E+02  0.000000000E+00  0.00000E+00  9.000E+00
      21    -1     0     0   511   502  0.000000000E+00  0.000000000E+00 -5.646168066E+02  5.646168066E+02  0.000000000E+00  0.00000E+00  9.000E+00
      25     1     1     2     0     0 -1.886488480E+02  9.214311277E+01  4.762843787E+02  5.353041663E+02  1.250000000E+02  0.00000E+00  9.000E+00
      25     1     1     2     0     0  2.030399087E+02 -4.270121284E+01  4.121949455E+02  4.780985999E+02  1.250000000E+02  0.00000E+00  9.000E+00
      21     1     1     2   511   501 -1.439106071E+01 -4.944189993E+01 -5.008349735E+02  5.034751978E+02  5.394796609E-06  0.00000E+00  9.000E+00
#rwgt            1           1   3.6920473141594086E-002           5      371123           0
</event>
<event>
      5   9999  3.79277E-02  6.96302E+01 -1.00000E+00  1.31337E-01
      21    -1     0     0   512   501  0.000000000E+00  0.000000000E+00  1.741636202E+03  1.741636202E+03  0.000000000E+00  0.00000E+00  9.000E+00
      21    -1     0     0   501   502  0.000000000E+00  0.000000000E+00 -2.293825323E+02  2.293825323E+02  0.000000000E+00  0.00000E+00  9.000E+00
      25     1     1     2     0     0  5.676299812E+01  2.331861891E+02  3.629549109E+01  2.730205110E+02  1.250000000E+02  0.00000E+00  9.000E+00
      25     1     1     2     0     0 -1.259120932E+02 -2.250153883E+02  7.619881711E+01  2.965080773E+02  1.250000000E+02  0.00000E+00  9.000E+00
      21     1     1     2   512   502  6.914909504E+01 -8.170800868E+00  1.399759361E+03  1.401490146E+03  2.642899792E-05  0.00000E+00  9.000E+00
#rwgt            1           1   4.4867131763901495E-002           5      371248           0
</event>
<event>
      5   9999  3.79277E-02  2.12663E+01 -1.00000E+00  1.64199E-01
      21    -1     0     0   502   501  0.000000000E+00  0.000000000E+00  7.263530156E+02  7.263530156E+02  0.000000000E+00  0.00000E+00  9.000E+00
      21    -1     0     0   501   511  0.000000000E+00  0.000000000E+00 -1.147383044E+02  1.147383044E+02  0.000000000E+00  0.00000E+00  9.000E+00
      25     1     1     2     0     0  3.711035415E+01  1.462711275E+02  1.133229939E+02  2.263614854E+02  1.250000000E+02  0.00000E+00  9.000E+00
      25     1     1     2     0     0 -1.586701456E+01 -1.452823386E+02  5.370920638E+02  5.704836589E+02  1.250000000E+02  0.00000E+00  9.000E+00
      21     1     1     2   502   511 -2.124333959E+01 -9.887888238E-01 -3.880034650E+01  4.424617575E+01  9.536743164E-07  0.00000E+00  9.000E+00
#rwgt            1           1   4.3112203834676621E-002           5      371321           0
</event>
<event>
      5   9999  3.79277E-02  9.51866E+00 -1.00000E+00  1.98267E-01
      21    -1     0     0   502   512  0.000000000E+00  0.000000000E+00  1.998467330E+03  1.998467330E+03  0.000000000E+00  0.00000E+00  9.000E+00
      21    -1     0     0   501   502  0.000000000E+00  0.000000000E+00 -2.822146578E+01  2.822146578E+01  0.000000000E+00  0.00000E+00  9.000E+00
      25     1     1     2     0     0  8.714549167E+01 -1.255427864E+01  2.169902747E+02  2.654462769E+02  1.250000000E+02  0.00000E+00  9.000E+00
      25     1     1     2     0     0 -9.330255429E+01  5.295114012E+00  1.569577914E+03  1.577318368E+03  1.250000000E+02  0.00000E+00  9.000E+00
      21     1     1     2   501   512  6.157062618E+00  7.259164623E+00  1.836776755E+02  1.839241511E+02  2.697398305E-06  0.00000E+00  9.000E+00
#rwgt            1           1   5.1290622983697576E-002           5      371545           0
</event>
<event>
      5   9999  3.79277E-02  1.21907E+02 -1.00000E+00  1.20078E-01
      21    -1     0     0   511   501  0.000000000E+00  0.000000000E+00  9.068666555E+02  9.068666555E+02  0.000000000E+00  0.00000E+00  9.000E+00
      21    -1     0     0   501   502  0.000000000E+00  0.000000000E+00 -2.263620011E+02  2.263620011E+02  0.000000000E+00  0.00000E+00  9.000E+00
      25     1     1     2     0     0  1.794535677E+02  2.175079641E+02  1.070047526E+02  3.264786585E+02  1.250000000E+02  0.00000E+00  9.000E+00
      25     1     1     2     0     0 -6.681441435E+01 -1.708858121E+02  1.620835685E+00  2.220219671E+02  1.250000000E+02  0.00000E+00  9.000E+00
      21     1     1     2   511   502 -1.126391533E+02 -4.662215196E+01  5.718790661E+02  5.847280310E+02  0.000000000E+00  0.00000E+00  9.000E+00
#rwgt            2          11   1.1889986600227111E-003           5      371750           0
</event>
<event>
      5   9999  3.79277E-02  4.02744E+01 -1.00000E+00  1.44656E-01
       2    -1     0     0   502     0  0.000000000E+00  0.000000000E+00  1.908731274E+03  1.908731274E+03  0.000000000E+00  0.00000E+00  9.000E+00
      21    -1     0     0   501   502  0.000000000E+00  0.000000000E+00 -3.621274686E+01  3.621274686E+01  0.000000000E+00  0.00000E+00  9.000E+00
      25     1     1     2     0     0 -7.231216887E+01  8.674049176E+01  2.506173289E+02  3.019718666E+02  1.250000000E+02  0.00000E+00  9.000E+00
      25     1     1     2     0     0  4.977954270E+01 -1.201217090E+02  7.998208452E+02  8.199058557E+02  1.250000000E+02  0.00000E+00  9.000E+00
       2     1     1     2   501     0  2.253262617E+01  3.338121719E+01  8.220803531E+02  8.230662985E+02  1.525878906E-05  0.00000E+00  9.000E+00
#rwgt            1           1   5.4802006238839886E-002           5      371860           0
</event>
<event>
      5   9999  3.79277E-02  1.00052E+02 -1.00000E+00  1.23818E-01
      21    -1     0     0   502   501  0.000000000E+00  0.000000000E+00  1.358672951E+02  1.358672951E+02  0.000000000E+00  0.00000E+00  9.000E+00
       1    -1     0     0   501     0  0.000000000E+00  0.000000000E+00 -3.054044912E+03  3.054044912E+03  0.000000000E+00  0.00000E+00  9.000E+00
      25     1     1     2     0     0 -9.879588713E+01 -5.290921784E+02 -6.752675190E+02  8.725310211E+02  1.250000000E+02  0.00000E+00  9.000E+00
      25     1     1     2     0     0  1.469652933E+02  4.413993836E+02 -1.905603470E+03  1.965548727E+03  1.250000000E+02  0.00000E+00  9.000E+00
       1     1     1     2   502     0 -4.816940620E+01  8.769279481E+01 -3.373066280E+02  3.518324591E+02  5.394796609E-06  0.00000E+00  9.000E+00
#rwgt            1           1  0.10091643014879847                5      371994           0
</event>
<event>
      5   9999  3.79277E-02  3.83618E+01 -1.00000E+00  1.45976E-01
      21    -1     0     0   502   501  0.000000000E+00  0.000000000E+00  3.455351221E+02  3.455351221E+02  0.000000000E+00  0.00000E+00  9.000E+00
      21    -1     0     0   501   511  0.000000000E+00  0.000000000E+00 -2.144679783E+02  2.144679783E+02  0.000000000E+00  0.00000E+00  9.000E+00
      25     1     1     2     0     0  2.120046011E+01 -8.700635326E+01  2.683494054E+02  3.092829908E+02  1.250000000E+02  0.00000E+00  9.000E+00
      25     1     1     2     0     0 -5.649703321E+01  1.020321998E+02 -1.184486664E+02  2.079845454E+02  1.250000000E+02  0.00000E+00  9.000E+00
      21     1     1     2   502   511  3.529657310E+01 -1.502584653E+01 -1.883359515E+01  4.273556415E+01  2.384185791E-07  0.00000E+00  9.000E+00
#rwgt            1           1   3.1579217124239035E-002           5      372150           0
</event>
<event>
      5   9999  3.79277E-02  1.03031E+01 -1.00000E+00  1.94270E-01
      21    -1     0     0   512   501  0.000000000E+00  0.000000000E+00  1.909119445E+02  1.909119445E+02  0.000000000E+00  0.00000E+00  9.000E+00
      21    -1     0     0   501   502  0.000000000E+00  0.000000000E+00 -1.972211537E+02  1.972211537E+02  0.000000000E+00  0.00000E+00  9.000E+00
      25     1     1     2     0     0  1.402366734E+02 -1.521101490E+00 -6.081842111E-01  1.878669961E+02  1.250000000E+02  0.00000E+00  9.000E+00
      25     1     1     2     0     0 -1.326173754E+02  8.456486821E+00 -1.901969442E+01  1.834274494E+02  1.250000000E+02  0.00000E+00  9.000E+00
      21     1     1     2   512   502 -7.619298050E+00 -6.935385331E+00  1.331866934E+01  1.683865272E+01  2.920019320E-07  0.00000E+00  9.000E+00
#rwgt            1           1   3.3291352085214054E-002           5      372395           0
</event>
<event>
      5   9999 -3.79277E-02  7.80727E+00 -1.00000E+00  2.09065E-01
      21    -1     0     0   511   501  0.000000000E+00  0.000000000E+00  1.335938818E+02  1.335938818E+02  0.000000000E+00  0.00000E+00  9.000E+00
      21    -1     0     0   501   502  0.000000000E+00  0.000000000E+00 -1.616714916E+03  1.616714916E+03  0.000000000E+00  0.00000E+00  9.000E+00
      25     1     1     2     0     0 -3.875242154E+02 -1.632057980E+02 -4.940303485E+02  6.606830823E+02  1.250000000E+02  0.00000E+00  9.000E+00
      25     1     1     2     0     0  3.947963331E+02  1.603650509E+02 -9.856970909E+02  1.081112783E+03  1.250000000E+02  0.00000E+00  9.000E+00
      21     1     1     2   511   502 -7.272117722E+00  2.840747046E+00 -3.393595082E+00  8.512932956E+00  9.424321831E-08  0.00000E+00  9.000E+00
#rwgt            1           1 -0.20422744908229332                5      372696           0
</event>
<event>
      5   9999  3.79277E-02  1.35995E+01 -1.00000E+00  1.81490E-01
      21    -1     0     0   502   501  0.000000000E+00  0.000000000E+00  5.187158029E+02  5.187158029E+02  0.000000000E+00  0.00000E+00  9.000E+00
      21    -1     0     0   501   512  0.000000000E+00  0.000000000E+00 -1.394527276E+02  1.394527276E+02  0.000000000E+00  0.00000E+00  9.000E+00
      25     1     1     2     0     0 -1.274424856E+02  6.921568143E+01  3.546410748E+02  4.030231875E+02  1.250000000E+02  0.00000E+00  9.000E+00
      25     1     1     2     0     0  1.194712565E+02 -5.819725438E+01  7.920492775E+01  1.988937458E+02  1.250000000E+02  0.00000E+00  9.000E+00
      21     1     1     2   502   512  7.971229096E+00 -1.101842705E+01 -5.458292734E+01  5.625159717E+01  1.168007728E-06  0.00000E+00  9.000E+00
#rwgt            1           1   3.7090898489106384E-002           5      373186           0
</event>
<event>
      5   9999  3.79277E-02  7.05713E+01 -1.00000E+00  1.31042E-01
      21    -1     0     0   502   511  0.000000000E+00  0.000000000E+00  1.152521401E+03  1.152521401E+03  0.000000000E+00  0.00000E+00  9.000E+00
      21    -1     0     0   501   502  0.000000000E+00  0.000000000E+00 -7.247807705E+01  7.247807705E+01  0.000000000E+00  0.00000E+00  9.000E+00
      25     1     1     2     0     0  1.560749004E+02 -1.490913305E+02  5.554108628E+02  6.088463073E+02  1.250000000E+02  0.00000E+00  9.000E+00
      25     1     1     2     0     0 -1.613754786E+02  7.871936047E+01  2.482151199E+02  3.308693527E+02  1.250000000E+02  0.00000E+00  9.000E+00
      21     1     1     2   501   511  5.300578248E+00  7.037197008E+01  2.764173411E+02  2.852838179E+02  0.000000000E+00  0.00000E+00  9.000E+00
#rwgt            1           1   3.5231286176333129E-002           5      373427           0
</event>
<event>
      5   9999  3.79277E-02  1.67967E+01 -1.00000E+00  1.72877E-01
      21    -1     0     0   502   512  0.000000000E+00  0.000000000E+00  3.412531224E+02  3.412531224E+02  0.000000000E+00  0.00000E+00  9.000E+00
      21    -1     0     0   501   502  0.000000000E+00  0.000000000E+00 -9.697197293E+01  9.697197293E+01  0.000000000E+00  0.00000E+00  9.000E+00
      25     1     1     2     0     0  6.016189216E+01  9.972275503E+01  1.179140375E+02  2.075880569E+02  1.250000000E+02  0.00000E+00  9.000E+00
      25     1     1     2     0     0 -7.541271649E+01 -9.268419419E+01  1.011381543E+02  2.003281406E+02  1.250000000E+02  0.00000E+00  9.000E+00
      21     1     1     2   501   512  1.525082434E+01 -7.038560838E+00  2.522895766E+01  3.030889781E+01  0.000000000E+00  0.00000E+00  9.000E+00
#rwgt            1           1   3.6272198989509619E-002           5      373509           0
</event>
<event>
      5   9999  3.79277E-02  1.16986E+02 -1.00000E+00  1.20839E-01
      -4    -1     0     0     0   501  0.000000000E+00  0.000000000E+00  8.269610783E+02  8.269610783E+02  0.000000000E+00  0.00000E+00  9.000E+00
      21    -1     0     0   501   502  0.000000000E+00  0.000000000E+00 -7.411507098E+01  7.411507098E+01  0.000000000E+00  0.00000E+00  9.000E+00
      25     1     1     2     0     0  1.172160345E+01  9.200597230E+01  1.411538850E+02  2.101235689E+02  1.250000000E+02  0.00000E+00  9.000E+00
      25     1     1     2     0     0  5.100410546E+01  6.742530889E+00  5.332158895E+02  5.500827804E+02  1.250000000E+02  0.00000E+00  9.000E+00
      -4     1     1     2     0   502 -6.272570891E+01 -9.874850319E+01  7.847623276E+01  1.408698000E+02  2.523185073E-06  0.00000E+00  9.000E+00
#rwgt            1           1   4.8805774808484699E-002           5      373757           0
</event>
<event>
      5   9999  3.79277E-02  3.44686E+01 -1.00000E+00  1.48966E-01
      21    -1     0     0   502   501  0.000000000E+00  0.000000000E+00  9.563196989E+01  9.563196989E+01  0.000000000E+00  0.00000E+00  9.000E+00
       2    -1     0     0   501     0  0.000000000E+00  0.000000000E+00 -9.233575986E+02  9.233575986E+02  0.000000000E+00  0.00000E+00  9.000E+00
      25     1     1     2     0     0 -7.724975587E+01 -1.054759669E+02 -4.372015388E+02  4.731415115E+02  1.250000000E+02  0.00000E+00  9.000E+00
      25     1     1     2     0     0  1.072539456E+02  1.224416312E+02 -6.040898112E+01  2.139383250E+02  1.250000000E+02  0.00000E+00  9.000E+00
       2     1     1     2   502     0 -3.000418973E+01 -1.696566422E+01 -3.301151087E+02  3.319097320E+02  3.814697266E-06  0.00000E+00  9.000E+00
#rwgt            1           1   4.2146937688717925E-002           5      373839           0
</event>
<event>
      5   9999  3.79277E-02  7.00197E+00 -1.00000E+00  2.15536E-01
      21    -1     0     0   502   501  0.000000000E+00  0.000000000E+00  2.617182785E+02  2.617182785E+02  0.000000000E+00  0.00000E+00  9.000E+00
      -1    -1     0     0     0   502  0.000000000E+00  0.000000000E+00 -4.716545215E+02  4.716545215E+02  0.000000000E+00  0.00000E+00  9.000E+00
      25     1     1     2     0     0 -1.065030441E+02  6.507468499E+01  7.219778022E+00  1.767900965E+02  1.250000000E+02  0.00000E+00  9.000E+00
      25     1     1     2     0     0  1.134336761E+02 -6.407773450E+01  1.216474961E+02  2.177068401E+02  1.250000000E+02  0.00000E+00  9.000E+00
      -1     1     1     2     0   501 -6.930632084E+00 -9.969504902E-01 -3.388035171E+02  3.388758633E+02  5.394796609E-06  0.00000E+00  9.000E+00
#rwgt            1           1   3.7143346453332414E-002           5      373999           0
</event>
<event>
      5   9999  3.79277E-02  1.37270E+01 -1.00000E+00  1.81091E-01
      21    -1     0     0   511   501  0.000000000E+00  0.000000000E+00  1.986635695E+02  1.986635695E+02  0.000000000E+00  0.00000E+00  9.000E+00
      21    -1     0     0   501   502  0.000000000E+00  0.000000000E+00 -3.325145951E+02  3.325145951E+02  0.000000000E+00  0.00000E+00  9.000E+00
      25     1     1     2     0     0 -1.005225355E+02 -9.633838214E+01  1.040580855E+02  2.141003250E+02  1.250000000E+02  0.00000E+00  9.000E+00
      25     1     1     2     0     0  1.064838815E+02  8.397339255E+01 -2.405322250E+02  3.031024562E+02  1.250000000E+02  0.00000E+00  9.000E+00
      21     1     1     2   511   502 -5.961345952E+00  1.236498959E+01  2.623113875E+00  1.397538334E+01  1.763129170E-07  0.00000E+00  9.000E+00
#rwgt            1           1   4.4083329374537850E-002           5      374263           0
</event>
<event>
      5   9999  3.79277E-02  4.18038E+01 -1.00000E+00  1.43662E-01
      21    -1     0     0   502   501  0.000000000E+00  0.000000000E+00  5.170328681E+01  5.170328681E+01  0.000000000E+00  0.00000E+00  9.000E+00
      21    -1     0     0   501   512  0.000000000E+00  0.000000000E+00 -1.084032345E+03  1.084032345E+03  0.000000000E+00  0.00000E+00  9.000E+00
      25     1     1     2     0     0 -1.267096560E+02 -8.852987169E+01 -4.278728171E+02  4.717976502E+02  1.250000000E+02  0.00000E+00  9.000E+00
      25     1     1     2     0     0  1.684467749E+02  9.089063134E+01 -4.618504929E+02  5.153312533E+02  1.250000000E+02  0.00000E+00  9.000E+00
      21     1     1     2   502   512 -4.173711898E+01 -2.360759643E+00 -1.426057486E+02  1.486067287E+02  2.697398305E-06  0.00000E+00  9.000E+00
#rwgt            1           1   3.5842371675163576E-002           5      374459           0
</event>
<event>
      5   9999  3.79277E-02  5.45674E+01 -1.00000E+00  1.36944E-01
      21    -1     0     0   502   501  0.000000000E+00  0.000000000E+00  1.211648461E+02  1.211648461E+02  0.000000000E+00  0.00000E+00  9.000E+00
      21    -1     0     0   501   511  0.000000000E+00  0.000000000E+00 -5.146138219E+02  5.146138219E+02  0.000000000E+00  0.00000E+00  9.000E+00
      25     1     1     2     0     0 -1.671320365E+02 -4.257293736E+01 -1.956644581E+02  2.892320051E+02  1.250000000E+02  0.00000E+00  9.000E+00
      25     1     1     2     0     0  1.406939352E+02 -5.162046977E+00 -5.881063696E+01  1.972438114E+02  1.250000000E+02  0.00000E+00  9.000E+00
      21     1     1     2   502   511  2.643810135E+01  4.773498434E+01 -1.389738807E+02  1.493028514E+02  1.907348633E-06  0.00000E+00  9.000E+00
#rwgt            1           1   3.9715246115408907E-002           5      374878           0
</event>
<event>
      5   9999  3.79277E-02  3.81455E+01 -1.00000E+00  1.46130E-01
      21    -1     0     0   512   501  0.000000000E+00  0.000000000E+00  8.516922030E+01  8.516922030E+01  0.000000000E+00  0.00000E+00  9.000E+00
      21    -1     0     0   501   502  0.000000000E+00  0.000000000E+00 -1.029219064E+03  1.029219064E+03  0.000000000E+00  0.00000E+00  9.000E+00
      25     1     1     2     0     0  8.344972041E+01 -9.924651942E+01 -4.921359437E+02  5.240577397E+02  1.250000000E+02  0.00000E+00  9.000E+00
      25     1     1     2     0     0 -5.797669259E+01  1.276402284E+02 -4.969796734E+02  5.312881710E+02  1.250000000E+02  0.00000E+00  9.000E+00
      21     1     1     2   512   502 -2.547302782E+01 -2.839370903E+01  4.506577387E+01  5.904237320E+01  2.286830675E-06  0.00000E+00  9.000E+00
#rwgt            1           1  0.19415427810768901                5      374994           0
</event>
<event>
      5   9999  3.79277E-02  4.76113E+01 -1.00000E+00  1.40299E-01
      21    -1     0     0   511   501  0.000000000E+00  0.000000000E+00  8.882506364E+01  8.882506364E+01  0.000000000E+00  0.00000E+00  9.000E+00
      21    -1     0     0   501   502  0.000000000E+00  0.000000000E+00 -2.013120544E+03  2.013120544E+03  0.000000000E+00  0.00000E+00  9.000E+00
      25     1     1     2     0     0 -6.043083330E+00  3.069034924E+02 -1.347566387E+03  1.387727077E+03  1.250000000E+02  0.00000E+00  9.000E+00
      25     1     1     2     0     0 -9.649199175E+00 -3.518544283E+02 -5.050596924E+02  6.281758819E+02  1.250000000E+02  0.00000E+00  9.000E+00
      21     1     1     2   511   502  1.569228251E+01  4.495093590E+01 -7.166940044E+01  8.604264830E+01  9.536743164E-07  0.00000E+00  9.000E+00
#rwgt            1           1   5.4481770786933115E-002           5      375262           0
</event>
<event>
      5   9999  3.79277E-02  5.52818E+01 -1.00000E+00  1.36632E-01
      21    -1     0     0   502   501  0.000000000E+00  0.000000000E+00  1.351765130E+02  1.351765130E+02  0.000000000E+00  0.00000E+00  9.000E+00
      21    -1     0     0   512   502  0.000000000E+00  0.000000000E+00 -6.022932405E+02  6.022932405E+02  0.000000000E+00  0.00000E+00  9.000E+00
      25     1     1     2     0     0  2.095891565E+01  1.512573220E+01  7.215257005E+01  1.466255683E+02  1.250000000E+02  0.00000E+00  9.000E+00
      25     1     1     2     0     0  2.567557140E+01 -4.481254716E+01 -1.689311970E+02  2.164027464E+02  1.250000000E+02  0.00000E+00  9.000E+00
      21     1     1     2   512   501 -4.663448705E+01  2.968681497E+01 -3.703381006E+02  3.744414388E+02  0.000000000E+00  0.00000E+00  9.000E+00
#rwgt            2          11   8.7671256361884504E-004           5      375470           0
</event>
<event>
      5   9999  3.79277E-02  4.48608E+01 -1.00000E+00  1.41817E-01
      21    -1     0     0   502   501  0.000000000E+00  0.000000000E+00  1.693855124E+02  1.693855124E+02  0.000000000E+00  0.00000E+00  9.000E+00
      21    -1     0     0   511   502  0.000000000E+00  0.000000000E+00 -3.503474391E+02  3.503474391E+02  0.000000000E+00  0.00000E+00  9.000E+00
      25     1     1     2     0     0 -1.474468707E+02  5.341942897E+01 -1.103177800E+02  2.288869321E+02  1.250000000E+02  0.00000E+00  9.000E+00
      25     1     1     2     0     0  1.917504812E+02 -4.637112040E+01 -4.111014178E+01  2.371361879E+02  1.250000000E+02  0.00000E+00  9.000E+00
      21     1     1     2   511   501 -4.430361046E+01 -7.048308570E+00 -2.953400496E+01  5.370983153E+01  4.768371582E-07  0.00000E+00  9.000E+00
#rwgt            1           1   3.5900022538944296E-002           5      375550           0
</event>
<event>
      5   9999  3.79277E-02  8.04735E+01 -1.00000E+00  1.28226E-01
      21    -1     0     0   502   501  0.000000000E+00  0.000000000E+00  4.566111363E+02  4.566111363E+02  0.000000000E+00  0.00000E+00  9.000E+00
       1    -1     0     0   501     0  0.000000000E+00  0.000000000E+00 -7.916400901E+02  7.916400901E+02  0.000000000E+00  0.00000E+00  9.000E+00
      25     1     1     2     0     0 -8.137560920E+01  1.550614697E+02  3.207531530E+02  3.862300277E+02  1.250000000E+02  0.00000E+00  9.000E+00
      25     1     1     2     0     0  1.027971405E+02 -7.749147933E+01  2.082961992E+01  1.806406780E+02  1.250000000E+02  0.00000E+00  9.000E+00
       1     1     1     2   502     0 -2.142153135E+01 -7.756999037E+01 -6.766117266E+02  6.813805207E+02  7.629394531E-06  0.00000E+00  9.000E+00
#rwgt            1           1   3.7460192033899248E-002           5      375789           0
</event>
<event>
      5   9999  3.79277E-02  2.92170E+01 -1.00000E+00  1.53842E-01
      21    -1     0     0   502   501  0.000000000E+00  0.000000000E+00  1.380146983E+02  1.380146983E+02  0.000000000E+00  0.00000E+00  9.000E+00
      21    -1     0     0   501   511  0.000000000E+00  0.000000000E+00 -2.992010239E+02  2.992010239E+02  0.000000000E+00  0.00000E+00  9.000E+00
      25     1     1     2     0     0 -8.604188599E+01 -7.338131439E+01  2.673770842E+01  1.706690613E+02  1.250000000E+02  0.00000E+00  9.000E+00
      25     1     1     2     0     0  5.691872490E+01  7.572130867E+01 -1.390369038E+02  2.095941756E+02  1.250000000E+02  0.00000E+00  9.000E+00
      21     1     1     2   502   511  2.912316109E+01 -2.339994290E+00 -4.888713019E+01  5.695248531E+01  6.743495762E-07  0.00000E+00  9.000E+00
#rwgt            1           1   2.2815142535259802E-002           5      375877           0
</event>
<event>
      5   9999  3.79277E-02  3.89076E+01 -1.00000E+00  1.45590E-01
      21    -1     0     0   502   501  0.000000000E+00  0.000000000E+00  1.046579750E+02  1.046579750E+02  0.000000000E+00  0.00000E+00  9.000E+00
      21    -1     0     0   501   512  0.000000000E+00  0.000000000E+00 -6.052294231E+02  6.052294231E+02  0.000000000E+00  0.00000E+00  9.000E+00
      25     1     1     2     0     0 -5.776320025E+00  9.052917139E+01 -6.906265082E+01  1.691849476E+02  1.250000000E+02  0.00000E+00  9.000E+00
      25     1     1     2     0     0 -1.798846211E+01 -1.213355727E+02 -8.984879354E+01  1.968342238E+02  1.250000000E+02  0.00000E+00  9.000E+00
      21     1     1     2   502   512  2.376478213E+01  3.080640131E+01 -3.416600037E+02  3.438682267E+02  3.814697266E-06  0.00000E+00  9.000E+00
#rwgt            1           1   4.1657841216033213E-002           5      376104           0
</event>
<event>
      5   9999  3.79277E-02  1.62990E+02 -1.00000E+00  1.14982E-01
       2    -1     0     0   502     0  0.000000000E+00  0.000000000E+00  1.815681883E+03  1.815681883E+03  0.000000000E+00  0.00000E+00  9.000E+00
      21    -1     0     0   501   502  0.000000000E+00  0.000000000E+00 -1.978558917E+02  1.978558917E+02  0.000000000E+00  0.00000E+00  9.000E+00
      25     1     1     2     0     0 -6.547257973E+01  1.141465173E+02  1.375619829E+02  2.277375358E+02  1.250000000E+02  0.00000E+00  9.000E+00
      25     1     1     2     0     0  2.142272471E+02 -4.752888967E+01 -4.098390921E+01  2.558456362E+02  1.250000000E+02  0.00000E+00  9.000E+00
       2     1     1     2   501     0 -1.487546673E+02 -6.661762761E+01  1.521247917E+03  1.529954602E+03  3.051757812E-05  0.00000E+00  9.000E+00
#rwgt            1           1   3.4180419149781149E-002           5      376209           0
</event>
<event>
      5   9999 -3.79277E-02  1.06612E+01 -1.00000E+00  1.92597E-01
      21    -1     0     0   511   501  0.000000000E+00  0.000000000E+00  8.094100021E+02  8.094100021E+02  0.000000000E+00  0.00000E+00  9.000E+00
      21    -1     0     0   501   502  0.000000000E+00  0.000000000E+00 -8.478989770E+01  8.478989770E+01  0.000000000E+00  0.00000E+00  9.000E+00
      25     1     1     2     0     0 -1.158782976E+02  6.746403583E+01  8.645634330E+01  2.026792423E+02  1.250000000E+02  0.00000E+00  9.000E+00
      25     1     1     2     0     0  1.202196689E+02 -5.772675923E+01  2.874378297E+02  3.406327252E+02  1.250000000E+02  0.00000E+00  9.000E+00
      21     1     1     2   511   502 -4.341371311E+00 -9.737276606E+00  3.507259314E+02  3.508879323E+02  6.607249480E-06  0.00000E+00  9.000E+00
#rwgt            1           1  -9.7000194152044132E-003           5      376323           0
</event>
<event>
      5   9999  3.79277E-02  6.57827E+01 -1.00000E+00  1.32602E-01
      21    -1     0     0   502   501  0.000000000E+00  0.000000000E+00  2.994922173E+02  2.994922173E+02  0.000000000E+00  0.00000E+00  9.000E+00
      21    -1     0     0   512   502  0.000000000E+00  0.000000000E+00 -3.943948734E+02  3.943948734E+02  0.000000000E+00  0.00000E+00  9.000E+00
      25     1     1     2     0     0  2.383759947E+02  1.787445366E+01  4.385461824E+00  2.697903690E+02  1.250000000E+02  0.00000E+00  9.000E+00
      25     1     1     2     0     0 -3.023317250E+02 -2.478814798E+00 -2.996921077E+01  3.285327534E+02  1.250000000E+02  0.00000E+00  9.000E+00
      21     1     1     2   512   501  6.395573036E+01 -1.539563886E+01 -6.931890708E+01  9.556396822E+01  0.000000000E+00  0.00000E+00  9.000E+00
#rwgt            1           1   4.4843466547574276E-002           5      376583           0
</event>
<event>
      5   9999  3.79277E-02  8.36007E+00 -1.00000E+00  2.05202E-01
      21    -1     0     0   502   511  0.000000000E+00  0.000000000E+00  1.053364024E+02  1.053364024E+02  0.000000000E+00  0.00000E+00  9.000E+00
      21    -1     0     0   501   502  0.000000000E+00  0.000000000E+00 -6.000498972E+02  6.000498972E+02  0.000000000E+00  0.00000E+00  9.000E+00
      25     1     1     2     0     0 -2.928778990E+00 -1.031657500E+02 -1.706030709E+02  2.353341401E+02  1.250000000E+02  0.00000E+00  9.000E+00
      25     1     1     2     0     0 -4.921001104E+00  1.002896919E+02 -3.805758512E+02  4.129712061E+02  1.250000000E+02  0.00000E+00  9.000E+00
      21     1     1     2   501   511  7.849780095E+00  2.876058103E+00  5.646542727E+01  5.708095335E+01  1.348699152E-06  0.00000E+00  9.000E+00
#rwgt            1           1   3.3353881618031302E-002           5      376733           0
</event>
<event>
      5   9999  3.79277E-02  3.19752E+02 -1.00000E+00  1.04700E-01
      21    -1     0     0   502   512  0.000000000E+00  0.000000000E+00  2.285214207E+02  2.285214207E+02  0.000000000E+00  0.00000E+00  9.000E+00
      21    -1     0     0   501   502  0.000000000E+00  0.000000000E+00 -9.408816070E+02  9.408816070E+02  0.000000000E+00  0.00000E+00  9.000E+00
      25     1     1     2     0     0 -2.744067845E+02 -4.803561550E+01 -6.247309224E+02  6.953561887E+02  1.250000000E+02  0.00000E+00  9.000E+00
      25     1     1     2     0     0 -2.284783486E+01 -6.978147027E+01 -4.287782606E+01  1.511786530E+02  1.250000000E+02  0.00000E+00  9.000E+00
      21     1     1     2   501   512  2.972546193E+02  1.178170858E+02 -4.475143783E+01  3.228681861E+02  4.792154131E-06  0.00000E+00  9.000E+00
#rwgt            2          11   9.0231006100748782E-004           5      377056           0
</event>
<event>
      5   9999  3.79277E-02  2.34766E+02 -1.00000E+00  1.09171E-01
      21    -1     0     0   502   501  0.000000000E+00  0.000000000E+00  5.711189666E+01  5.711189666E+01  0.000000000E+00  0.00000E+00  9.000E+00
      21    -1     0     0   501   511  0.000000000E+00  0.000000000E+00 -2.393852577E+03  2.393852577E+03  0.000000000E+00  0.00000E+00  9.000E+00
      25     1     1     2     0     0  1.832400385E+02  6.948663747E+01 -9.675526986E+02  9.950821720E+02  1.250000000E+02  0.00000E+00  9.000E+00
      25     1     1     2     0     0  5.123496044E+01 -5.780174699E+01 -1.349195055E+02  1.994851776E+02  1.250000000E+02  0.00000E+00  9.000E+00
      21     1     1     2   502   511 -2.344749989E+02 -1.168489049E+01 -1.234268476E+03  1.256397124E+03  2.157918644E-05  0.00000E+00  9.000E+00
#rwgt            1           1   3.2981242891718554E-002           5      377091           0
</event>
<event>
      5   9999  3.79277E-02  1.15634E+02 -1.00000E+00  1.21056E-01
      21    -1     0     0   512   501  0.000000000E+00  0.000000000E+00  2.435178060E+02  2.435178060E+02  0.000000000E+00  0.00000E+00  9.000E+00
      21    -1     0     0   501   502  0.000000000E+00  0.000000000E+00 -3.767625150E+02  3.767625150E+02  0.000000000E+00  0.00000E+00  9.000E+00
      25     1     1     2     0     0  3.663868799E+01  2.006518690E+02 -1.983578399E+02  3.107642171E+02  1.250000000E+02  0.00000E+00  9.000E+00
      25     1     1     2     0     0  5.058272327E+01 -1.247339182E+02  1.770545858E+01  1.845417175E+02  1.250000000E+02  0.00000E+00  9.000E+00
      21     1     1     2   512   502 -8.722141126E+01 -7.591795088E+01  4.740767236E+01  1.249743864E+02  1.168007728E-06  0.00000E+00  9.000E+00
#rwgt            1           1   4.1987930312830143E-002           5      377149           0
</event>
<event>
      5   9999  3.79277E-02  6.72467E+01 -1.00000E+00  1.32109E-01
      21    -1     0     0   511   501  0.000000000E+00  0.000000000E+00  1.207821643E+02  1.207821643E+02  0.000000000E+00  0.00000E+00  9.000E+00
      21    -1     0     0   501   502  0.000000000E+00  0.000000000E+00 -2.069153257E+03  2.069153257E+03  0.000000000E+00  0.00000E+00  9.000E+00
      25     1     1     2     0     0 -2.416311535E+02 -6.689981353E+01 -4.443556977E+02  5.252981872E+02  1.250000000E+02  0.00000E+00  9.000E+00
      25     1     1     2     0     0  1.829035064E+02  9.965926011E+01 -1.558975649E+03  1.577788242E+03  1.250000000E+02  0.00000E+00  9.000E+00
      21     1     1     2   511   502  5.872764708E+01 -3.275944658E+01  5.496025443E+01  8.684899215E+01  2.132480600E-06  0.00000E+00  9.000E+00
#rwgt            1           1   2.8054819000948524E-002           5      377202           0
</event>
<event>
      5   9999  3.79277E-02  9.28063E+00 -1.00000E+00  1.99581E-01
      21    -1     0     0   512   501  0.000000000E+00  0.000000000E+00  5.564063731E+01  5.564063731E+01  0.000000000E+00  0.00000E+00  9.000E+00
      21    -1     0     0   501   502  0.000000000E+00  0.000000000E+00 -6.842871001E+02  6.842871001E+02  0.000000000E+00  0.00000E+00  9.000E+00
      25     1     1     2     0     0  5.696901685E+01 -5.246551327E+01 -5.317975631E+02  5.517533390E+02  1.250000000E+02  0.00000E+00  9.000E+00
      25     1     1     2     0     0 -6.499611506E+01  5.712339633E+01 -9.209250252E+01  1.777459040E+02  1.250000000E+02  0.00000E+00  9.000E+00
      21     1     1     2   512   502  8.027098210E+00 -4.657883060E+00 -4.756397109E+00  1.042849432E+01  2.064765462E-07  0.00000E+00  9.000E+00
#rwgt            1           1   4.1294805542583933E-002           5      377319           0
</event>
<event>
      5   9999  3.79277E-02  1.82299E+01 -1.00000E+00  1.69760E-01
      21    -1     0     0   502   511  0.000000000E+00  0.000000000E+00  6.208311009E+02  6.208311009E+02  0.000000000E+00  0.00000E+00  9.000E+00
      21    -1     0     0   501   502  0.000000000E+00  0.000000000E+00 -6.431627380E+01  6.431627380E+01  0.000000000E+00  0.00000E+00  9.000E+00
      25     1     1     2     0     0 -9.142562623E+01  1.065703911E+02  3.200919361E+02  3.712138749E+02  1.250000000E+02  0.00000E+00  9.000E+00
      25     1     1     2     0     0  7.532496457E+01 -1.151202244E+02  1.990181721E+02  2.723228767E+02  1.250000000E+02  0.00000E+00  9.000E+00
      21     1     1     2   501   511  1.610066166E+01  8.549833303E+00  3.740471893E+01  4.161062308E+01  6.743495762E-07  0.00000E+00  9.000E+00
#rwgt            1           1   4.2792410183362863E-002           5      377647           0
</event>
<event>
      5   9999  3.79277E-02  1.11857E+01 -1.00000E+00  1.90295E-01
      21    -1     0     0   502   501  0.000000000E+00  0.000000000E+00  4.837163589E+02  4.837163589E+02  0.000000000E+00  0.00000E+00  9.000E+00
      21    -1     0     0   512   502  0.000000000E+00  0.000000000E+00 -3.129033450E+02  3.129033450E+02  0.000000000E+00  0.00000E+00  9.000E+00
      25     1     1     2     0     0 -4.730145927E+00  1.736535415E+02  9.347032250E+01  2.335372089E+02  1.250000000E+02  0.00000E+00  9.000E+00
      25     1     1     2     0     0 -5.406039281E+00 -1.783840952E+02  2.829776821E+02  3.571434995E+02  1.250000000E+02  0.00000E+00  9.000E+00
      21     1     1     2   512   501  1.013618521E+01  4.730553623E+00 -2.056349908E+02  2.059389954E+02  0.000000000E+00  0.00000E+00  9.000E+00
#rwgt            1           1   2.3619790261280478E-002           5      377799           0
</event>
<event>
      5   9999  3.79277E-02  3.74631E+01 -1.00000E+00  1.46627E-01
      21    -1     0     0   502   501  0.000000000E+00  0.000000000E+00  4.911363515E+02  4.911363515E+02  0.000000000E+00  0.00000E+00  9.000E+00
      21    -1     0     0   501   511  0.000000000E+00  0.000000000E+00 -3.572027344E+02  3.572027344E+02  0.000000000E+00  0.00000E+00  9.000E+00
      25     1     1     2     0     0 -1.813628823E+01  2.629247579E+02  3.452985537E+02  4.520115534E+02  1.250000000E+02  0.00000E+00  9.000E+00
      25     1     1     2     0     0  5.358824555E+01 -2.508151183E+02 -1.448280337E+02  3.199688781E+02  1.250000000E+02  0.00000E+00  9.000E+00
      21     1     1     2   502   511 -3.545195732E+01 -1.210963963E+01 -6.653690283E+01  7.635865431E+01  1.348699152E-06  0.00000E+00  9.000E+00
#rwgt            1           1   3.7041785514034010E-002           5      378028           0
</event>
<event>
      5   9999  3.79277E-02  1.48369E+02 -1.00000E+00  1.16582E-01
      21    -1     0     0   502   512  0.000000000E+00  0.000000000E+00  1.865646555E+02  1.865646555E+02  0.000000000E+00  0.00000E+00  9.000E+00
      21    -1     0     0   501   502  0.000000000E+00  0.000000000E+00 -7.836656379E+02  7.836656379E+02  0.000000000E+00  0.00000E+00  9.000E+00
      25     1     1     2     0     0  1.324858771E+02 -2.213342672E+02 -4.419847060E+02  5.267986767E+02  1.250000000E+02  0.00000E+00  9.000E+00
      25     1     1     2     0     0  1.572840832E+01  2.145571267E+02 -1.585293510E+02  2.950232170E+02  1.250000000E+02  0.00000E+00  9.000E+00
      21     1     1     2   501   512 -1.482142854E+02  6.777140472E+00  3.413074633E+00  1.484083997E+02  3.886433095E-06  0.00000E+00  9.000E+00
#rwgt            1           1   3.3431726468958069E-002           5      378118           0
</event>
<event>
      5   9999  3.79277E-02  1.48403E+02 -1.00000E+00  1.16578E-01
      21    -1     0     0   502   501  0.000000000E+00  0.000000000E+00  2.431169705E+02  2.431169705E+02  0.000000000E+00  0.00000E+00  9.000E+00
      21    -1     0     0   511   502  0.000000000E+00  0.000000000E+00 -4.541268764E+02  4.541268764E+02  0.000000000E+00  0.00000E+00  9.000E+00
      25     1     1     2     0     0  6.108182794E+01 -1.291285464E+02  1.399959819E+02  2.358581060E+02  1.250000000E+02  0.00000E+00  9.000E+00
      25     1     1     2     0     0  6.465980680E+01  5.030825726E+01 -1.523468547E+02  2.134159682E+02  1.250000000E+02  0.00000E+00  9.000E+00
      21     1     1     2   511   501 -1.257416347E+02  7.882028916E+01 -1.986590332E+02  2.479697727E+02  2.697398305E-06  0.00000E+00  9.000E+00
#rwgt            1           1   3.6704717827947139E-002           5      378295           0
</event>
<event>
      5   9999  3.79277E-02  4.35361E+01 -1.00000E+00  1.42595E-01
      21    -1     0     0   502   501  0.000000000E+00  0.000000000E+00  2.449403725E+02  2.449403725E+02  0.000000000E+00  0.00000E+00  9.000E+00
      21    -1     0     0   512   502  0.000000000E+00  0.000000000E+00 -2.476451108E+02  2.476451108E+02  0.000000000E+00  0.00000E+00  9.000E+00
      25     1     1     2     0     0 -5.925670888E+01 -6.578530967E+01 -1.270217291E+01  1.537055943E+02  1.250000000E+02  0.00000E+00  9.000E+00
      25     1     1     2     0     0  5.124294226E+01  1.085774897E+02  1.264568492E+02  2.145489341E+02  1.250000000E+02  0.00000E+00  9.000E+00
      21     1     1     2   512   501  8.013766618E+00 -4.279218000E+01 -1.164594146E+02  1.243309550E+02  1.907348633E-06  0.00000E+00  9.000E+00
#rwgt            1           1   4.1417452054776142E-002           5      378387           0
</event>
<event>
      5   9999  3.79277E-02  3.58526E+01 -1.00000E+00  1.47851E-01
      21    -1     0     0   502   501  0.000000000E+00  0.000000000E+00  3.049890104E+02  3.049890104E+02  0.000000000E+00  0.00000E+00  9.000E+00
       1    -1     0     0   501     0  0.000000000E+00  0.000000000E+00 -2.124681931E+02  2.124681931E+02  0.000000000E+00  0.00000E+00  9.000E+00
      25     1     1     2     0     0 -9.192749673E+01  2.464825700E-05  2.195347994E+02  2.688330203E+02  1.250000000E+02  0.00000E+00  9.000E+00
      25     1     1     2     0     0  1.137658113E+02 -2.843411133E+01 -1.260561069E+02  2.127587850E+02  1.250000000E+02  0.00000E+00  9.000E+00
       1     1     1     2   502     0 -2.183831456E+01  2.843408668E+01 -9.578753168E-01  3.586539827E+01  7.344020325E-07  0.00000E+00  9.000E+00
#rwgt            1           1   4.6360920115305695E-002           5      378463           0
</event>
<event>
      5   9999  3.79277E-02  1.45719E+01 -1.00000E+00  1.78577E-01
      21    -1     0     0   511   501  0.000000000E+00  0.000000000E+00  3.568999886E+02  3.568999886E+02  0.000000000E+00  0.00000E+00  9.000E+00
      21    -1     0     0   501   502  0.000000000E+00  0.000000000E+00 -1.352170003E+02  1.352170003E+02  0.000000000E+00  0.00000E+00  9.000E+00
      25     1     1     2     0     0 -1.008149086E+01 -2.910025967E+01 -8.315247132E+01  1.532572839E+02  1.250000000E+02  0.00000E+00  9.000E+00
      25     1     1     2     0     0  2.451080341E+01  2.706685191E+01  2.908041469E+02  3.186305789E+02  1.250000000E+02  0.00000E+00  9.000E+00
      21     1     1     2   511   502 -1.442931255E+01  2.033407758E+00  1.403131267E+01  2.022912611E+01  0.000000000E+00  0.00000E+00  9.000E+00
#rwgt            1           1   3.5012750889910980E-002           5      378528           0
</event>
<event>
      5   9999  3.79277E-02  3.85652E+01 -1.00000E+00  1.45831E-01
      21    -1     0     0   502   501  0.000000000E+00  0.000000000E+00  2.492892861E+02  2.492892861E+02  0.000000000E+00  0.00000E+00  9.000E+00
      -3    -1     0     0     0   502  0.000000000E+00  0.000000000E+00 -6.595958031E+02  6.595958031E+02  0.000000000E+00  0.00000E+00  9.000E+00
      25     1     1     2     0     0 -2.305390293E+02  3.617227375E+01 -1.715041504E+02  3.154288367E+02  1.250000000E+02  0.00000E+00  9.000E+00
      25     1     1     2     0     0  2.045751375E+02 -6.468809259E+01  8.870678020E+01  2.636843360E+02  1.250000000E+02  0.00000E+00  9.000E+00
      -3     1     1     2     0   501  2.596389189E+01  2.851581884E+01 -3.275091469E+02  3.297719165E+02  3.814697266E-06  0.00000E+00  9.000E+00
#rwgt            1           1   3.9134461167023571E-002           5      378781           0
</event>
<event>
      5   9999  3.79277E-02  1.72651E+01 -1.00000E+00  1.71816E-01
      21    -1     0     0   502   511  0.000000000E+00  0.000000000E+00  2.453870055E+01  2.453870055E+01  0.000000000E+00  0.00000E+00  9.000E+00
      21    -1     0     0   501   502  0.000000000E+00  0.000000000E+00 -1.435603619E+03  1.435603619E+03  0.000000000E+00  0.00000E+00  9.000E+00
      25     1     1     2     0     0  1.451093402E+01  1.005664982E+02 -9.745776244E+02  9.878009586E+02  1.250000000E+02  0.00000E+00  9.000E+00
      25     1     1     2     0     0  2.463177981E+00 -1.037229839E+02 -4.061935257E+02  4.374730906E+02  1.250000000E+02  0.00000E+00  9.000E+00
      21     1     1     2   501   511 -1.697411200E+01  3.156485708E+00 -3.029376830E+01  3.486827036E+01  7.539457465E-07  0.00000E+00  9.000E+00
#rwgt            1           1   4.5091933682379536E-002           5      378882           0
</event>
<event>
      5   9999  3.79277E-02  6.78198E+01 -1.00000E+00  1.31920E-01
      21    -1     0     0   502   501  0.000000000E+00  0.000000000E+00  3.634560898E+01  3.634560898E+01  0.000000000E+00  0.00000E+00  9.000E+00
      21    -1     0     0   512   502  0.000000000E+00  0.000000000E+00 -1.054291163E+03  1.054291163E+03  0.000000000E+00  0.00000E+00  9.000E+00
      25     1     1     2     0     0 -8.195750986E+01 -3.731639679E+01 -6.555317061E+02  6.733916873E+02  1.250000000E+02  0.00000E+00  9.000E+00
      25     1     1     2     0     0  1.417910875E+01  3.968451180E+01 -1.841963623E+02  2.265595010E+02  1.250000000E+02  0.00000E+00  9.000E+00
      21     1     1     2   512   501  6.777840111E+01 -2.368115005E+00 -1.782174856E+02  1.906855836E+02  2.697398305E-06  0.00000E+00  9.000E+00
#rwgt            1           1   6.5398187502526378E-002           5      379086           0
</event>
<event>
      5   9999  3.79277E-02  4.83218E+01 -1.00000E+00  1.39927E-01
      21    -1     0     0   502   511  0.000000000E+00  0.000000000E+00  1.549437935E+02  1.549437935E+02  0.000000000E+00  0.00000E+00  9.000E+00
      21    -1     0     0   501   502  0.000000000E+00  0.000000000E+00 -4.960696662E+02  4.960696662E+02  0.000000000E+00  0.00000E+00  9.000E+00
      25     1     1     2     0     0  1.777516365E+02 -4.543353179E+01 -2.408792769E+02  3.275785038E+02  1.250000000E+02  0.00000E+00  9.000E+00
      25     1     1     2     0     0 -1.677359304E+02 -1.838919943E+00 -1.474059873E+02  2.559145347E+02  1.250000000E+02  0.00000E+00  9.000E+00
      21     1     1     2   501   511 -1.001570615E+01  4.727245173E+01  4.715939158E+01  6.752042118E+01  1.168007728E-06  0.00000E+00  9.000E+00
#rwgt            1           1   3.4697251062548035E-002           5      379189           0
</event>
<event>
      5   9999  3.79277E-02  7.13489E+01 -1.00000E+00  1.30802E-01
      21    -1     0     0   502   501  0.000000000E+00  0.000000000E+00  7.422316519E+01  7.422316519E+01  0.000000000E+00  0.00000E+00  9.000E+00
      21    -1     0     0   512   502  0.000000000E+00  0.000000000E+00 -1.704129339E+03  1.704129339E+03  0.000000000E+00  0.00000E+00  9.000E+00
      25     1     1     2     0     0  2.020448630E+02  1.503986279E+01 -1.642905877E+02  2.892485460E+02  1.250000000E+02  0.00000E+00  9.000E+00
      25     1     1     2     0     0 -1.317740892E+02 -2.683211475E+00 -8.389775430E+02  8.584171060E+02  1.250000000E+02  0.00000E+00  9.000E+00
      21     1     1     2   512   501 -7.027077387E+01 -1.235665132E+01 -6.266380430E+02  6.306868521E+02  1.078959322E-05  0.00000E+00  9.000E+00
#rwgt            1           1   6.4920675166009106E-002           5      379291           0
</event>
<event>
      5   9999  3.79277E-02  1.06144E+01 -1.00000E+00  1.92811E-01
      21    -1     0     0   502   501  0.000000000E+00  0.000000000E+00  1.336666330E+02  1.336666330E+02  0.000000000E+00  0.00000E+00  9.000E+00
      -1    -1     0     0     0   502  0.000000000E+00  0.000000000E+00 -4.440825588E+02  4.440825588E+02  0.000000000E+00  0.00000E+00  9.000E+00
      25     1     1     2     0     0  9.342576076E+01  5.080501433E+01  3.927702025E+01  1.687519084E+02  1.250000000E+02  0.00000E+00  9.000E+00
      25     1     1     2     0     0 -8.283029954E+01 -5.143805775E+01 -1.836227454E+02  2.425882209E+02  1.250000000E+02  0.00000E+00  9.000E+00
      -1     1     1     2     0   501 -1.059546122E+01  6.330434115E-01 -1.660702006E+02  1.664090625E+02  1.907348633E-06  0.00000E+00  9.000E+00
#rwgt            1           1   2.8870070001923983E-002           5      379373           0
</event>
<event>
      5   9999  3.79277E-02  7.36730E+01 -1.00000E+00  1.30106E-01
      21    -1     0     0   502   501  0.000000000E+00  0.000000000E+00  5.434025427E+02  5.434025427E+02  0.000000000E+00  0.00000E+00  9.000E+00
      21    -1     0     0   501   511  0.000000000E+00  0.000000000E+00 -2.072114115E+02  2.072114115E+02  0.000000000E+00  0.00000E+00  9.000E+00
      25     1     1     2     0     0  1.023557439E+02 -9.695935262E+01 -4.177602665E+01  1.929975409E+02  1.250000000E+02  0.00000E+00  9.000E+00
      25     1     1     2     0     0 -5.943867124E+01  1.568412056E+02  4.225578265E+02  4.714999853E+02  1.250000000E+02  0.00000E+00  9.000E+00
      21     1     1     2   502   511 -4.291707271E+01 -5.988185303E+01 -4.459066856E+01  8.611642802E+01  1.719260824E-06  0.00000E+00  9.000E+00
#rwgt            1           1   4.3766577379173090E-002           5      379555           0
</event>
<event>
      5   9999  3.79277E-02  2.56224E+01 -1.00000E+00  1.57955E-01
      21    -1     0     0   512   501  0.000000000E+00  0.000000000E+00  5.415067222E+02  5.415067222E+02  0.000000000E+00  0.00000E+00  9.000E+00
      21    -1     0     0   501   502  0.000000000E+00  0.000000000E+00 -1.582923792E+02  1.582923792E+02  0.000000000E+00  0.00000E+00  9.000E+00
      25     1     1     2     0     0  2.008816538E+02 -6.595347244E+01  2.190974895E+02  3.291382829E+02  1.250000000E+02  0.00000E+00  9.000E+00
      25     1     1     2     0     0 -1.963623097E+02  4.073278731E+01  3.483401956E+01  2.388634035E+02  1.250000000E+02  0.00000E+00  9.000E+00
      21     1     1     2   512   502 -4.519344138E+00  2.522068513E+01  1.292828340E+02  1.317974150E+02  0.000000000E+00  0.00000E+00  9.000E+00
#rwgt            1           1   3.3403244971498269E-002           5      379644           0
</event>
<event>
      5   9999  3.79277E-02  4.49725E+01 -1.00000E+00  1.41753E-01
      21    -1     0     0   502   501  0.000000000E+00  0.000000000E+00  4.487309974E+02  4.487309974E+02  0.000000000E+00  0.00000E+00  9.000E+00
      21    -1     0     0   501   511  0.000000000E+00  0.000000000E+00 -1.196183730E+02  1.196183730E+02  0.000000000E+00  0.00000E+00  9.000E+00
      25     1     1     2     0     0 -6.716685107E+01 -3.618381373E+01  1.511735098E+01  1.472215628E+02  1.250000000E+02  0.00000E+00  9.000E+00
      25     1     1     2     0     0  8.602474586E+01  7.701155391E+01  3.316955048E+02  3.727974574E+02  1.250000000E+02  0.00000E+00  9.000E+00
      21     1     1     2   502   511 -1.885789479E+01 -4.082774018E+01 -1.770023140E+01  4.833035025E+01  2.384185791E-07  0.00000E+00  9.000E+00
#rwgt            1           1   2.4651824216805677E-002           5      379738           0
</event>
<event>
      5   9999  3.79277E-02  3.57940E+01 -1.00000E+00  1.47897E-01
      21    -1     0     0   502   512  0.000000000E+00  0.000000000E+00  2.755394023E+02  2.755394023E+02  0.000000000E+00  0.00000E+00  9.000E+00
      21    -1     0     0   501   502  0.000000000E+00  0.000000000E+00 -1.925882301E+02  1.925882301E+02  0.000000000E+00  0.00000E+00  9.000E+00
      25     1     1     2     0     0 -6.433025670E+01  2.052934956E+01 -1.234466888E+02  1.882124361E+02  1.250000000E+02  0.00000E+00  9.000E+00
      25     1     1     2     0     0  6.769039719E+01 -5.616524022E+01  1.744652521E+02  2.319475119E+02  1.250000000E+02  0.00000E+00  9.000E+00
      21     1     1     2   501   512 -3.360140493E+00  3.563589066E+01  3.193260887E+01  4.796768451E+01  7.539457465E-07  0.00000E+00  9.000E+00
#rwgt            1           1   3.1648975638047278E-002           5      379919           0
</event>
<event>
      5   9999  3.79277E-02  7.31010E+01 -1.00000E+00  1.30274E-01
      21    -1     0     0   502   511  0.000000000E+00  0.000000000E+00  4.037032537E+02  4.037032537E+02  0.000000000E+00  0.00000E+00  9.000E+00
      21    -1     0     0   501   502  0.000000000E+00  0.000000000E+00 -2.226488025E+02  2.226488025E+02  0.000000000E+00  0.00000E+00  9.000E+00
      25     1     1     2     0     0 -2.046598267E+02  1.416916858E+02  3.278076975E+01  2.804670344E+02  1.250000000E+02  0.00000E+00  9.000E+00
      25     1     1     2     0     0  1.315616962E+02 -1.410391281E+02  7.347366706E+01  2.412962812E+02  1.250000000E+02  0.00000E+00  9.000E+00
      21     1     1     2   501   511  7.309813049E+01 -6.525576792E-01  7.480001445E+01  1.045887407E+02  1.348699152E-06  0.00000E+00  9.000E+00
#rwgt            1           1   3.5471828042493027E-002           5      380039           0
</event>
<event>
      5   9999  3.79277E-02  1.80746E+01 -1.00000E+00  1.70080E-01
      21    -1     0     0   512   501  0.000000000E+00  0.000000000E+00  4.671016496E+02  4.671016496E+02  0.000000000E+00  0.00000E+00  9.000E+00
      21    -1     0     0   501   502  0.000000000E+00  0.000000000E+00 -3.676495934E+02  3.676495934E+02  0.000000000E+00  0.00000E+00  9.000E+00
      25     1     1     2     0     0 -7.819607677E+01 -3.416847964E+02 -5.300793799E+01  3.758962198E+02  1.250000000E+02  0.00000E+00  9.000E+00
      25     1     1     2     0     0  8.007845399E+01  3.596610591E+02  9.767554763E+01  4.011659866E+02  1.250000000E+02  0.00000E+00  9.000E+00
      21     1     1     2   512   502 -1.882377228E+00 -1.797626266E+01  5.478444655E+01  5.768903663E+01  9.536743164E-07  0.00000E+00  9.000E+00
#rwgt            1           1   6.4421982307141426E-002           5      380168           0
</event>
<event>
      5   9999  3.79277E-02  6.83186E+01 -1.00000E+00  1.31758E-01
       1    -1     0     0   502     0  0.000000000E+00  0.000000000E+00  1.052088650E+03  1.052088650E+03  0.000000000E+00  0.00000E+00  9.000E+00
      21    -1     0     0   501   502  0.000000000E+00  0.000000000E+00 -3.795900229E+02  3.795900229E+02  0.000000000E+00  0.00000E+00  9.000E+00
      25     1     1     2     0     0  9.076227666E+01 -4.942761448E+01 -1.291906260E+02  2.073550042E+02  1.250000000E+02  0.00000E+00  9.000E+00
      25     1     1     2     0     0 -1.589818112E+02  4.574965276E+01 -1.589469822E+02  2.612611532E+02  1.250000000E+02  0.00000E+00  9.000E+00
       1     1     1     2   501     0  6.821953457E+01  3.677961715E+00  9.606362349E+02  9.630625151E+02  2.157918644E-05  0.00000E+00  9.000E+00
#rwgt            1           1   3.7375081376015987E-002           5      380398           0
</event>
<event>
      5   9999 -4.58801E-02  6.94928E+01 -1.00000E+00  1.31381E-01
      21    -1     0     0   511   501  0.000000000E+00  0.000000000E+00  1.041408427E+03  1.041408427E+03  0.000000000E+00  0.00000E+00  9.000E+00
      21    -1     0     0   501   502  0.000000000E+00  0.000000000E+00 -8.515286888E+02  8.515286888E+02  0.000000000E+00  0.00000E+00  9.000E+00
      25     1     1     2     0     0 -5.511257405E+02 -5.069494262E+02 -4.105282130E+02  8.630734130E+02  1.250000000E+02  0.00000E+00  9.000E+00
      25     1     1     2     0     0  5.121848655E+02  4.493919619E+02  3.622059920E+02  7.817318290E+02  1.250000000E+02  0.00000E+00  9.000E+00
      21     1     1     2   511   502  3.894087503E+01  5.755746430E+01  2.382019592E+02  2.481318738E+02  2.697398305E-06  0.00000E+00  9.000E+00
#rwgt            1           1  -9.3505959843047950E-002           5      380508           0
</event>
<event>
      5   9999 -3.79277E-02  1.18254E+02 -1.00000E+00  1.20639E-01
      21    -1     0     0   512   501  0.000000000E+00  0.000000000E+00  5.651954114E+02  5.651954114E+02  0.000000000E+00  0.00000E+00  9.000E+00
      21    -1     0     0   501   502  0.000000000E+00  0.000000000E+00 -1.914783109E+02  1.914783109E+02  0.000000000E+00  0.00000E+00  9.000E+00
      25     1     1     2     0     0  1.526957971E+02 -1.199567362E+02  1.614223712E+01  2.314977253E+02  1.250000000E+02  0.00000E+00  9.000E+00
      25     1     1     2     0     0 -2.322915170E+02  3.250087908E+01  2.336495436E+02  3.538824173E+02  1.250000000E+02  0.00000E+00  9.000E+00
      21     1     1     2   512   502  7.959571990E+01  8.745585707E+01  1.239253198E+02  1.712935797E+02  1.348699152E-06  0.00000E+00  9.000E+00
#rwgt            1           1 -0.21487164649703405                5      380741           0
</event>
<event>
      5   9999  3.79277E-02  1.82094E+01 -1.00000E+00  1.69802E-01
      21    -1     0     0   511   501  0.000000000E+00  0.000000000E+00  3.250172560E+01  3.250172560E+01  0.000000000E+00  0.00000E+00  9.000E+00
      21    -1     0     0   501   502  0.000000000E+00  0.000000000E+00 -1.246580841E+03  1.246580841E+03  0.000000000E+00  0.00000E+00  9.000E+00
      25     1     1     2     0     0 -3.851838426E+01 -1.264690435E+02 -8.174487611E+02  8.374518266E+02  1.250000000E+02  0.00000E+00  9.000E+00
      25     1     1     2     0     0  5.041270715E+01  1.126811427E+02 -3.512720418E+02  3.927537756E+02  1.250000000E+02  0.00000E+00  9.000E+00
      21     1     1     2   511   502 -1.189432289E+01  1.378790083E+01 -4.535831277E+01  4.887696455E+01  0.000000000E+00  0.00000E+00  9.000E+00
#rwgt            1           1   3.5611826531018319E-002           5      380910           0
</event>
<event>
      5   9999  3.79277E-02  1.67378E+01 -1.00000E+00  1.73013E-01
      21    -1     0     0   502   512  0.000000000E+00  0.000000000E+00  1.211134473E+03  1.211134473E+03  0.000000000E+00  0.00000E+00  9.000E+00
      21    -1     0     0   501   502  0.000000000E+00  0.000000000E+00 -6.683817562E+01  6.683817562E+01  0.000000000E+00  0.00000E+00  9.000E+00
      25     1     1     2     0     0  4.691529952E+01  1.677597698E+02  2.940812258E+02  3.639411395E+02  1.250000000E+02  0.00000E+00  9.000E+00
      25     1     1     2     0     0 -3.650860417E+01 -1.808690893E+02  3.591561050E+02  4.226873707E+02  1.250000000E+02  0.00000E+00  9.000E+00
      21     1     1     2   501   512 -1.040669536E+01  1.310931946E+01  4.910589663E+02  4.913441380E+02  9.344061824E-06  0.00000E+00  9.000E+00
#rwgt            1           1   4.1114379830084168E-002           5      381092           0
</event>
<event>
      5   9999  3.79277E-02  3.31473E+01 -1.00000E+00  1.50090E-01
      21    -1     0     0   502   501  0.000000000E+00  0.000000000E+00  5.988428082E+02  5.988428082E+02  0.000000000E+00  0.00000E+00  9.000E+00
      21    -1     0     0   501   511  0.000000000E+00  0.000000000E+00 -1.351084702E+02  1.351084702E+02  0.000000000E+00  0.00000E+00  9.000E+00
      25     1     1     2     0     0 -2.033650912E+02  5.731588965E+01  3.765884375E+02  4.495401237E+02  1.250000000E+02  0.00000E+00  9.000E+00
      25     1     1     2     0     0  1.854144504E+02 -2.944976039E+01  1.026632242E+02  2.478115099E+02  1.250000000E+02  0.00000E+00  9.000E+00
      21     1     1     2   502   511  1.795064082E+01 -2.786612926E+01 -1.551732372E+01  3.659964482E+01  3.371747881E-07  0.00000E+00  9.000E+00
#rwgt            1           1   2.6240228597156186E-002           5      381294           0
</event>
<event>
      5   9999  3.79277E-02  1.18107E+02 -1.00000E+00  1.20662E-01
       5    -1     0     0   502     0  0.000000000E+00  0.000000000E+00  1.317187959E+02  1.317187959E+02  0.000000000E+00  0.00000E+00  9.000E+00
      21    -1     0     0   501   502  0.000000000E+00  0.000000000E+00 -1.335524478E+03  1.335524478E+03  0.000000000E+00  0.00000E+00  9.000E+00
      25     1     1     2     0     0  1.144096834E+02  7.687753730E+01 -7.589242054E+02  7.814030208E+02  1.250000000E+02  0.00000E+00  9.000E+00
      25     1     1     2     0     0 -1.117073714E+02  4.119847163E+01 -5.186254702E+02  5.466015269E+02  1.250000000E+02  0.00000E+00  9.000E+00
       5     1     1     2   501     0 -2.702312019E+00 -1.180760089E+02  7.374399325E+01  1.392387264E+02  2.523185073E-06  0.00000E+00  9.000E+00
#rwgt            1           1   3.1747461781425769E-002           5      381490           0
</event>
<event>
      5   9999  3.79277E-02  9.26291E+01 -1.00000E+00  1.25342E-01
      21    -1     0     0   502   501  0.000000000E+00  0.000000000E+00  5.244188631E+02  5.244188631E+02  0.000000000E+00  0.00000E+00  9.000E+00
       1    -1     0     0   501     0  0.000000000E+00  0.000000000E+00 -1.996189086E+02  1.996189086E+02  0.000000000E+00  0.00000E+00  9.000E+00
      25     1     1     2     0     0  5.707359063E+01 -1.021246235E+02  4.070999787E+02  4.416358524E+02  1.250000000E+02  0.00000E+00  9.000E+00
      25     1     1     2     0     0 -4.490833215E+01  1.029785819E+01  3.027421107E+01  1.366174661E+02  1.250000000E+02  0.00000E+00  9.000E+00
       1     1     1     2   502     0 -1.216525848E+01  9.182676535E+01 -1.125742353E+02  1.457844532E+02  2.697398305E-06  0.00000E+00  9.000E+00
#rwgt            2          12   8.4612231937690932E-005           5      381559           0
</event>
<event>
      5   9999  3.79277E-02  1.17653E+01 -1.00000E+00  1.87935E-01
      21    -1     0     0   502   501  0.000000000E+00  0.000000000E+00  3.229349424E+02  3.229349424E+02  0.000000000E+00  0.00000E+00  9.000E+00
      21    -1     0     0   501   511  0.000000000E+00  0.000000000E+00 -1.145455835E+02  1.145455835E+02  0.000000000E+00  0.00000E+00  9.000E+00
      25     1     1     2     0     0  1.126049907E+02 -7.793906763E+01  1.150889570E+02  2.182311852E+02  1.250000000E+02  0.00000E+00  9.000E+00
      25     1     1     2     0     0 -1.197065001E+02  6.855876905E+01  9.120086202E+01  2.072982108E+02  1.250000000E+02  0.00000E+00  9.000E+00
      21     1     1     2   502   511  7.101509431E+00  9.380298580E+00  2.099539829E+00  1.195112987E+01  3.500980176E-07  0.00000E+00  9.000E+00
#rwgt            1           1   3.3337977352200565E-002           5      381638           0
</event>
<event>
      5   9999  3.79277E-02  1.01872E+02 -1.00000E+00  1.23467E-01
      21    -1     0     0   502   501  0.000000000E+00  0.000000000E+00  1.701112093E+02  1.701112093E+02  0.000000000E+00  0.00000E+00  9.000E+00
      21    -1     0     0   501   512  0.000000000E+00  0.000000000E+00 -9.620376573E+02  9.620376573E+02  0.000000000E+00  0.00000E+00  9.000E+00
      25     1     1     2     0     0 -6.707298096E+00 -1.239200136E+02 -2.081002143E+02  2.726386928E+02  1.250000000E+02  0.00000E+00  9.000E+00
      25     1     1     2     0     0  9.744686785E+01  7.761340234E+01  7.579643936E+01  1.920672603E+02  1.250000000E+02  0.00000E+00  9.000E+00
      21     1     1     2   502   512 -9.073956975E+01  4.630661129E+01 -6.596226731E+02  6.674429133E+02  1.321449896E-05  0.00000E+00  9.000E+00
#rwgt            1           1   2.7440617971783023E-002           5      381860           0
</event>
<event>
      5   9999  3.79277E-02  1.34100E+02 -1.00000E+00  1.18355E-01
      21    -1     0     0   502   511  0.000000000E+00  0.000000000E+00  3.943415148E+02  3.943415148E+02  0.000000000E+00  0.00000E+00  9.000E+00
      21    -1     0     0   501   502  0.000000000E+00  0.000000000E+00 -2.343756449E+02  2.343756449E+02  0.000000000E+00  0.00000E+00  9.000E+00
      25     1     1     2     0     0  1.312201759E+02 -7.381544197E+01 -3.652970027E+01  1.990649970E+02  1.250000000E+02  0.00000E+00  9.000E+00
      25     1     1     2     0     0 -7.137502236E+01  1.938207463E+02  8.732190713E+01  2.567313595E+02  1.250000000E+02  0.00000E+00  9.000E+00
      21     1     1     2   501   511 -5.984515351E+01 -1.200053043E+02  1.091736630E+02  1.729208031E+02  2.336015456E-06  0.00000E+00  9.000E+00
#rwgt            1           1   3.8337367594005155E-002           5      381948           0
</event>
<event>
      5   9999  3.79277E-02  6.34240E+01 -1.00000E+00  1.33428E-01
      21    -1     0     0   502   501  0.000000000E+00  0.000000000E+00  6.668815721E+02  6.668815721E+02  0.000000000E+00  0.00000E+00  9.000E+00
      21    -1     0     0   512   502  0.000000000E+00  0.000000000E+00 -1.901414249E+02  1.901414249E+02  0.000000000E+00  0.00000E+00  9.000E+00
      25     1     1     2     0     0  1.945477067E+02 -1.609638088E+02  3.606000734E+01  2.840483798E+02  1.250000000E+02  0.00000E+00  9.000E+00
      25     1     1     2     0     0 -1.342841958E+02  1.807354364E+02  4.396715619E+02  5.095425650E+02  1.250000000E+02  0.00000E+00  9.000E+00
      21     1     1     2   512   501 -6.026351092E+01 -1.977162763E+01  1.008577935E+00  6.343205213E+01  7.938278080E-07  0.00000E+00  9.000E+00
#rwgt            1           1   3.9498359700507545E-002           5      382033           0
</event>
<event>
      5   9999  3.79277E-02  9.87757E+01 -1.00000E+00  1.24069E-01
      21    -1     0     0   502   501  0.000000000E+00  0.000000000E+00  2.320944883E+02  2.320944883E+02  0.000000000E+00  0.00000E+00  9.000E+00
      21    -1     0     0   511   502  0.000000000E+00  0.000000000E+00 -4.364329497E+02  4.364329497E+02  0.000000000E+00  0.00000E+00  9.000E+00
      25     1     1     2     0     0  1.896920532E+02 -1.028455127E+02 -4.267379009E+01  2.529947171E+02  1.250000000E+02  0.00000E+00  9.000E+00
      25     1     1     2     0     0 -1.205797308E+02  1.734155344E+02 -2.470964584E+01  2.466738447E+02  1.250000000E+02  0.00000E+00  9.000E+00
      21     1     1     2   511   501 -6.911232238E+01 -7.057002169E+01 -1.369550255E+02  1.688588762E+02  2.697398305E-06  0.00000E+00  9.000E+00
#rwgt            1           1   7.2931693355201985E-002           5      382128           0
</event>
<event>
      5   9999  3.79277E-02  5.27445E+01 -1.00000E+00  1.37764E-01
      21    -1     0     0   502   501  0.000000000E+00  0.000000000E+00  2.377007810E+02  2.377007810E+02  0.000000000E+00  0.00000E+00  9.000E+00
       2    -1     0     0   501     0  0.000000000E+00  0.000000000E+00 -9.677895908E+02  9.677895908E+02  0.000000000E+00  0.00000E+00  9.000E+00
      25     1     1     2     0     0  1.567917776E+02  1.155619989E+02  4.907377946E+01  2.365829092E+02  1.250000000E+02  0.00000E+00  9.000E+00
      25     1     1     2     0     0 -1.762159310E+02 -1.645995820E+02 -1.026732821E+02  2.903650799E+02  1.250000000E+02  0.00000E+00  9.000E+00
       2     1     1     2   502     0  1.942415348E+01  4.903758313E+01 -6.764893073E+02  6.785423827E+02  0.000000000E+00  0.00000E+00  9.000E+00
#rwgt            1           1   4.0555167764430120E-002           5      382196           0
</event>
<event>
      5   9999  3.79277E-02  2.09062E+01 -1.00000E+00  1.64797E-01
       2    -1     0     0   502     0  0.000000000E+00  0.000000000E+00  2.310314902E+03  2.310314902E+03  0.000000000E+00  0.00000E+00  9.000E+00
      21    -1     0     0   501   502  0.000000000E+00  0.000000000E+00 -9.647884321E+01  9.647884321E+01  0.000000000E+00  0.00000E+00  9.000E+00
      25     1     1     2     0     0  2.065543111E+02  7.215288710E+01  2.149551454E+02  3.312120727E+02  1.250000000E+02  0.00000E+00  9.000E+00
      25     1     1     2     0     0 -1.986674093E+02 -9.151438282E+01  3.761864769E+02  4.527525672E+02  1.250000000E+02  0.00000E+00  9.000E+00
       2     1     1     2   501     0 -7.886901815E+00  1.936149572E+01  1.622694436E+03  1.622829105E+03  2.157918644E-05  0.00000E+00  9.000E+00
#rwgt            1           1   3.6396638268820863E-002           5      382355           0
</event>
<event>
      5   9999  3.79277E-02  4.30940E+01 -1.00000E+00  1.42862E-01
      21    -1     0     0   511   501  0.000000000E+00  0.000000000E+00  2.454520196E+02  2.454520196E+02  0.000000000E+00  0.00000E+00  9.000E+00
      21    -1     0     0   501   502  0.000000000E+00  0.000000000E+00 -6.418101371E+02  6.418101371E+02  0.000000000E+00  0.00000E+00  9.000E+00
      25     1     1     2     0     0  9.021248377E+01  6.825449731E+01 -3.097876492E+02  3.526901703E+02  1.250000000E+02  0.00000E+00  9.000E+00
      25     1     1     2     0     0 -1.094230564E+02 -2.967933109E+01 -2.851635423E+02  3.313570790E+02  1.250000000E+02  0.00000E+00  9.000E+00
      21     1     1     2   511   502  1.921057263E+01 -3.857516622E+01  1.985930740E+02  2.032149074E+02  0.000000000E+00  0.00000E+00  9.000E+00
#rwgt            1           1   4.3020623856574181E-002           5      382660           0
</event>
<event>
      5   9999  3.79277E-02  3.11586E+01 -1.00000E+00  1.51906E-01
      21    -1     0     0   512   501  0.000000000E+00  0.000000000E+00  8.231605038E+02  8.231605038E+02  0.000000000E+00  0.00000E+00  9.000E+00
      21    -1     0     0   501   502  0.000000000E+00  0.000000000E+00 -1.290812207E+02  1.290812207E+02  0.000000000E+00  0.00000E+00  9.000E+00
      25     1     1     2     0     0  6.825509098E+01  2.888346247E+01 -7.176462006E+01  1.620745894E+02  1.250000000E+02  0.00000E+00  9.000E+00
      25     1     1     2     0     0 -8.811231394E+01 -4.872003194E+00  7.092037561E+02  7.255222146E+02  1.250000000E+02  0.00000E+00  9.000E+00
      21     1     1     2   512   502  1.985722296E+01 -2.401145927E+01  5.664014710E+01  6.464492048E+01  0.000000000E+00  0.00000E+00  9.000E+00
#rwgt            1           1   3.0704074324783046E-002           5      382752           0
</event>
<event>
      5   9999  3.79277E-02  1.14088E+02 -1.00000E+00  1.21307E-01
      21    -1     0     0   502   501  0.000000000E+00  0.000000000E+00  6.832629691E+02  6.832629691E+02  0.000000000E+00  0.00000E+00  9.000E+00
      21    -1     0     0   511   502  0.000000000E+00  0.000000000E+00 -1.404187264E+02  1.404187264E+02  0.000000000E+00  0.00000E+00  9.000E+00
      25     1     1     2     0     0  3.580289425E+01  1.816167497E+02  4.241084290E+02  4.793322966E+02  1.250000000E+02  0.00000E+00  9.000E+00
      25     1     1     2     0     0 -1.254150427E+02 -1.110062879E+02  7.171362956E+01  2.209506134E+02  1.250000000E+02  0.00000E+00  9.000E+00
      21     1     1     2   511   501  8.961214842E+01 -7.061046175E+01  4.702218414E+01  1.233987855E+02  1.348699152E-06  0.00000E+00  9.000E+00
#rwgt            1           1   3.8389695805381735E-002           5      382988           0
</event>
<event>
      5   9999  3.79277E-02  1.79700E+01 -1.00000E+00  1.70298E-01
      21    -1     0     0   512   501  0.000000000E+00  0.000000000E+00  1.404423889E+02  1.404423889E+02  0.000000000E+00  0.00000E+00  9.000E+00
      21    -1     0     0   501   502  0.000000000E+00  0.000000000E+00 -1.716133377E+02  1.716133377E+02  0.000000000E+00  0.00000E+00  9.000E+00
      25     1     1     2     0     0 -3.630374667E+01 -2.560826075E+01  3.706977084E+01  1.377421974E+02  1.250000000E+02  0.00000E+00  9.000E+00
      25     1     1     2     0     0  4.036032670E+01  4.311437664E+01 -7.211971993E+01  1.559296619E+02  1.250000000E+02  0.00000E+00  9.000E+00
      21     1     1     2   512   502 -4.056580034E+00 -1.750611590E+01  3.879000293E+00  1.838386735E+01  1.192092896E-07  0.00000E+00  9.000E+00
#rwgt            1           1   7.4860183383587658E-002           5      383072           0
</event>
<event>
      5   9999  3.79277E-02  3.00873E+01 -1.00000E+00  1.52952E-01
      21    -1     0     0   502   501  0.000000000E+00  0.000000000E+00  8.479424583E+02  8.479424583E+02  0.000000000E+00  0.00000E+00  9.000E+00
      21    -1     0     0   501   511  0.000000000E+00  0.000000000E+00 -2.425353489E+02  2.425353489E+02  0.000000000E+00  0.00000E+00  9.000E+00
      25     1     1     2     0     0 -4.205141428E+00 -1.439662559E+02  7.369335927E+02  7.612096204E+02  1.250000000E+02  0.00000E+00  9.000E+00
      25     1     1     2     0     0  3.199302059E+01  1.324301648E+02  9.430662125E+00  1.851357321E+02  1.250000000E+02  0.00000E+00  9.000E+00
      21     1     1     2   502   511 -2.778787916E+01  1.153609113E+01 -1.409571455E+02  1.441324546E+02  1.907348633E-06  0.00000E+00  9.000E+00
#rwgt            1           1   3.3056870784627004E-002           5      383254           0
</event>
<event>
      5   9999  4.04094E-02  5.39882E+01 -1.00000E+00  1.37200E-01
      21    -1     0     0   512   501  0.000000000E+00  0.000000000E+00  2.974452991E+01  2.974452991E+01  0.000000000E+00  0.00000E+00  9.000E+00
      21    -1     0     0   501   502  0.000000000E+00  0.000000000E+00 -2.013268833E+03  2.013268833E+03  0.000000000E+00  0.00000E+00  9.000E+00
      25     1     1     2     0     0 -1.125249896E+02 -1.317793676E+00 -4.297064094E+02  4.614501145E+02  1.250000000E+02  0.00000E+00  9.000E+00
      25     1     1     2     0     0  6.060240317E+01  1.610867172E+01 -1.495756789E+03  1.502280104E+03  1.250000000E+02  0.00000E+00  9.000E+00
      21     1     1     2   512   502  5.192258647E+01 -1.479087804E+01 -5.806110534E+01  7.928314456E+01  1.784161275E-06  0.00000E+00  9.000E+00
#rwgt            1           1  0.20878521465225788                5      383525           0
</event>
<event>
      5   9999  3.79277E-02  1.61237E+02 -1.00000E+00  1.15164E-01
      21    -1     0     0   502   501  0.000000000E+00  0.000000000E+00  2.434810116E+02  2.434810116E+02  0.000000000E+00  0.00000E+00  9.000E+00
       1    -1     0     0   501     0  0.000000000E+00  0.000000000E+00 -1.035262726E+03  1.035262726E+03  0.000000000E+00  0.00000E+00  9.000E+00
      25     1     1     2     0     0 -1.913984757E+02  1.564494656E+02 -2.416049167E+02  3.675700581E+02  1.250000000E+02  0.00000E+00  9.000E+00
      25     1     1     2     0     0  5.372185658E+01 -7.252906064E+01  1.364384036E+02  2.058808891E+02  1.250000000E+02  0.00000E+00  9.000E+00
       1     1     1     2   502     0  1.376766192E+02 -8.392040497E+01 -6.866152009E+02  7.052927902E+02  1.078959322E-05  0.00000E+00  9.000E+00
#rwgt            1           1   3.3726977854529265E-002           5      383572           0
</event>
<event>
      5   9999  3.79277E-02  5.75053E+01 -1.00000E+00  1.35696E-01
      21    -1     0     0   502   501  0.000000000E+00  0.000000000E+00  4.546498926E+02  4.546498926E+02  0.000000000E+00  0.00000E+00  9.000E+00
      21    -1     0     0   501   511  0.000000000E+00  0.000000000E+00 -8.300575856E+02  8.300575856E+02  0.000000000E+00  0.00000E+00  9.000E+00
      25     1     1     2     0     0 -8.110183673E+01 -3.444693763E+02  1.273078025E+01  3.755312662E+02  1.250000000E+02  0.00000E+00  9.000E+00
      25     1     1     2     0     0  4.293398501E+01  3.874818145E+02  9.692205766E+01  4.207188716E+02  1.250000000E+02  0.00000E+00  9.000E+00
      21     1     1     2   502   511  3.816785172E+01 -4.301243828E+01 -4.850605309E+02  4.884573404E+02  0.000000000E+00  0.00000E+00  9.000E+00
#rwgt            1           1   5.5927106941944749E-002           5      383901           0
</event>
<event>
      5   9999  3.79277E-02  5.54237E+01 -1.00000E+00  1.36571E-01
      21    -1     0     0   502   501  0.000000000E+00  0.000000000E+00  1.243152652E+03  1.243152652E+03  0.000000000E+00  0.00000E+00  9.000E+00
      21    -1     0     0   501   512  0.000000000E+00  0.000000000E+00 -9.951784681E+01  9.951784681E+01  0.000000000E+00  0.00000E+00  9.000E+00
      25     1     1     2     0     0  1.290788637E+02  2.442476337E+02  6.545708606E+02  7.213918985E+02  1.250000000E+02  0.00000E+00  9.000E+00
      25     1     1     2     0     0 -9.405961378E+01 -2.872062446E+02  4.045418393E+02  5.202054764E+02  1.250000000E+02  0.00000E+00  9.000E+00
      21     1     1     2   502   512 -3.501924995E+01  4.295861093E+01  8.452210547E+01  1.010731242E+02  1.348699152E-06  0.00000E+00  9.000E+00
#rwgt            1           1   4.5969591799355558E-002           5      384095           0
</event>
<event>
      5   9999  3.79277E-02  7.77007E+01 -1.00000E+00  1.28966E-01
      21    -1     0     0   502   511  0.000000000E+00  0.000000000E+00  2.269417410E+02  2.269417410E+02  0.000000000E+00  0.00000E+00  9.000E+00
      21    -1     0     0   501   502  0.000000000E+00  0.000000000E+00 -3.148134282E+02  3.148134282E+02  0.000000000E+00  0.00000E+00  9.000E+00
      25     1     1     2     0     0  1.628957952E+02 -1.480777303E+02 -4.849865905E+01  2.577579761E+02  1.250000000E+02  0.00000E+00  9.000E+00
      25     1     1     2     0     0 -1.328754011E+02  7.641061037E+01 -5.379004250E+01  2.049702961E+02  1.250000000E+02  0.00000E+00  9.000E+00
      21     1     1     2   501   511 -3.002039406E+01  7.166711997E+01  1.441701440E+01  7.902689700E+01  1.118282261E-06  0.00000E+00  9.000E+00
#rwgt            1           1   4.3148632966038686E-002           5      384317           0
</event>
<event>
      5   9999  3.79277E-02  3.70561E+01 -1.00000E+00  1.46930E-01
       2    -1     0     0   502     0  0.000000000E+00  0.000000000E+00  1.019233099E+03  1.019233099E+03  0.000000000E+00  0.00000E+00  9.000E+00
      21    -1     0     0   501   502  0.000000000E+00  0.000000000E+00 -1.247052992E+02  1.247052992E+02  0.000000000E+00  0.00000E+00  9.000E+00
      25     1     1     2     0     0  1.634546005E+02  3.293817365E+00  1.227009152E+01  2.061645237E+02  1.250000000E+02  0.00000E+00  9.000E+00
      25     1     1     2     0     0 -1.273444509E+02  5.025396270E+00  2.656724562E+02  3.200761124E+02  1.250000000E+02  0.00000E+00  9.000E+00
       2     1     1     2   501     0 -3.611014961E+01 -8.319213634E+00  6.165852517E+02  6.176977617E+02  0.000000000E+00  0.00000E+00  9.000E+00
#rwgt            1           1   4.2593356501161479E-002           5      384441           0
</event>
<event>
      5   9999  3.79277E-02  8.36442E+01 -1.00000E+00  1.27420E-01
      21    -1     0     0   502   501  0.000000000E+00  0.000000000E+00  3.887840259E+02  3.887840259E+02  0.000000000E+00  0.00000E+00  9.000E+00
      21    -1     0     0   511   502  0.000000000E+00  0.000000000E+00 -1.701434833E+02  1.701434833E+02  0.000000000E+00  0.00000E+00  9.000E+00
      25     1     1     2     0     0 -5.123459210E+00  9.302645873E+01 -2.692873049E+01  1.582097607E+02  1.250000000E+02  0.00000E+00  9.000E+00
      25     1     1     2     0     0  8.788889234E+01 -1.051190715E+02  2.563206276E+02  3.163854306E+02  1.250000000E+02  0.00000E+00  9.000E+00
      21     1     1     2   511   501 -8.276543313E+01  1.209261274E+01 -1.075135452E+01  8.433231782E+01  9.684608465E-07  0.00000E+00  9.000E+00
#rwgt            1           1   3.6567063753600255E-002           5      384536           0
</event>
<event>
      5   9999  3.79277E-02  5.21114E+01 -1.00000E+00  1.38058E-01
      21    -1     0     0   502   501  0.000000000E+00  0.000000000E+00  1.254678093E+03  1.254678093E+03  0.000000000E+00  0.00000E+00  9.000E+00
      21    -1     0     0   512   502  0.000000000E+00  0.000000000E+00 -9.565644259E+01  9.565644259E+01  0.000000000E+00  0.00000E+00  9.000E+00
      25     1     1     2     0     0  2.112844952E+02  4.238124959E+01  9.088596521E+02  9.423843035E+02  1.250000000E+02  0.00000E+00  9.000E+00
      25     1     1     2     0     0 -2.258619272E+02  7.649724731E+00  2.443191639E+02  3.555122815E+02  1.250000000E+02  0.00000E+00  9.000E+00
      21     1     1     2   512   501  1.457743200E+01 -5.003097432E+01  5.842834041E+00  5.243795024E+01  7.251217997E-07  0.00000E+00  9.000E+00
#rwgt            1           1   4.0016543273315296E-002           5      384620           0
</event>
<event>
      5   9999  3.79277E-02  3.36614E+01 -1.00000E+00  1.49646E-01
      21    -1     0     0   511   501  0.000000000E+00  0.000000000E+00  2.340179545E+02  2.340179545E+02  0.000000000E+00  0.00000E+00  9.000E+00
      21    -1     0     0   501   502  0.000000000E+00  0.000000000E+00 -4.894695164E+02  4.894695164E+02  0.000000000E+00  0.00000E+00  9.000E+00
      25     1     1     2     0     0 -5.377350884E+01 -6.690368215E+01  8.695629950E+01  1.747972853E+02  1.250000000E+02  0.00000E+00  9.000E+00
      25     1     1     2     0     0  4.788157357E+01  3.376190933E+01 -4.317150448E+02  4.532498114E+02  1.250000000E+02  0.00000E+00  9.000E+00
      21     1     1     2   511   502  5.891935273E+00  3.314177283E+01  8.930718338E+01  9.544037411E+01  9.536743164E-07  0.00000E+00  9.000E+00
#rwgt            1           1   2.9615593039270305E-002           5      384722           0
</event>
<event>
      5   9999  3.79277E-02  2.01621E+01 -1.00000E+00  1.66080E-01
      21    -1     0     0   512   501  0.000000000E+00  0.000000000E+00  5.122155511E+02  5.122155511E+02  0.000000000E+00  0.00000E+00  9.000E+00
      21    -1     0     0   501   502  0.000000000E+00  0.000000000E+00 -1.878177767E+02  1.878177767E+02  0.000000000E+00  0.00000E+00  9.000E+00
      25     1     1     2     0     0  1.580032800E+02 -5.196949184E+01  6.510247951E+01  2.180119203E+02  1.250000000E+02  0.00000E+00  9.000E+00
      25     1     1     2     0     0 -1.465925653E+02  6.859196935E+01 -1.680413653E+01  2.051867867E+02  1.250000000E+02  0.00000E+00  9.000E+00
      21     1     1     2   512   502 -1.141071471E+01 -1.662247751E+01  2.760994314E+02  2.768346207E+02  3.814697266E-06  0.00000E+00  9.000E+00
#rwgt            1           1   2.8478452216429168E-002           5      384917           0
</event>
<event>
      5   9999  3.79277E-02  1.38628E+01 -1.00000E+00  1.80671E-01
      21    -1     0     0   502   501  0.000000000E+00  0.000000000E+00  1.925196441E+02  1.925196441E+02  0.000000000E+00  0.00000E+00  9.000E+00
      21    -1     0     0   511   502  0.000000000E+00  0.000000000E+00 -4.451065136E+02  4.451065136E+02  0.000000000E+00  0.00000E+00  9.000E+00
      25     1     1     2     0     0 -7.147236320E+01 -5.510688393E+01 -8.316714724E+00  1.543995955E+02  1.250000000E+02  0.00000E+00  9.000E+00
      25     1     1     2     0     0  6.124600490E+01  4.574750209E+01  7.434852178E+01  1.643064507E+02  1.250000000E+02  0.00000E+00  9.000E+00
      21     1     1     2   511   501  1.022635830E+01  9.359381840E+00 -3.186186766E+02  3.189201115E+02  3.814697266E-06  0.00000E+00  9.000E+00
#rwgt            1           1   4.6019903332586772E-002           5      385027           0
</event>
<event>
      5   9999  3.79277E-02  3.66307E+01 -1.00000E+00  1.47251E-01
      21    -1     0     0   512   501  0.000000000E+00  0.000000000E+00  9.937862756E+02  9.937862756E+02  0.000000000E+00  0.00000E+00  9.000E+00
      21    -1     0     0   501   502  0.000000000E+00  0.000000000E+00 -1.067670631E+02  1.067670631E+02  0.000000000E+00  0.00000E+00  9.000E+00
      25     1     1     2     0     0 -3.655289361E+01 -1.284376246E+02 -4.360720193E+00  1.829654430E+02  1.250000000E+02  0.00000E+00  9.000E+00
      25     1     1     2     0     0  4.785444439E+01  9.359391941E+01  5.361556445E+02  5.604799236E+02  1.250000000E+02  0.00000E+00  9.000E+00
      21     1     1     2   512   502 -1.130155079E+01  3.484370515E+01  3.552242882E+02  3.571079721E+02  5.394796609E-06  0.00000E+00  9.000E+00
#rwgt            1           1   3.3113598621489451E-002           5      385295           0
</event>
<event>
      5   9999  3.79277E-02  8.23883E+01 -1.00000E+00  1.27734E-01
      21    -1     0     0   511   501  0.000000000E+00  0.000000000E+00  3.636845899E+02  3.636845899E+02  0.000000000E+00  0.00000E+00  9.000E+00
      21    -1     0     0   501   502  0.000000000E+00  0.000000000E+00 -1.842837216E+02  1.842837216E+02  0.000000000E+00  0.00000E+00  9.000E+00
      25     1     1     2     0     0 -9.901048198E+01  3.517332870E+01  1.753425531E+02  2.396043604E+02  1.250000000E+02  0.00000E+00  9.000E+00
      25     1     1     2     0     0  9.077245918E+01  4.680210182E+01 -8.879624738E+01  1.842277114E+02  1.250000000E+02  0.00000E+00  9.000E+00
      21     1     1     2   511   502  8.238022799E+00 -8.197543052E+01  9.285456250E+01  1.241362397E+02  1.348699152E-06  0.00000E+00  9.000E+00
#rwgt            1           1   4.8647467637448059E-002           5      385383           0
</event>
<event>
      5   9999  3.79277E-02  7.44308E+01 -1.00000E+00  1.29885E-01
      21    -1     0     0   502   501  0.000000000E+00  0.000000000E+00  5.622333219E+02  5.622333219E+02  0.000000000E+00  0.00000E+00  9.000E+00
       3    -1     0     0   501     0  0.000000000E+00  0.000000000E+00 -4.531325833E+02  4.531325833E+02  0.000000000E+00  0.00000E+00  9.000E+00
      25     1     1     2     0     0  1.110033322E+02  1.305757571E+02  1.757771362E+02  2.754893278E+02  1.250000000E+02  0.00000E+00  9.000E+00
      25     1     1     2     0     0 -1.610305071E+02 -1.856867293E+02  2.754461774E+02  3.897511800E+02  1.250000000E+02  0.00000E+00  9.000E+00
       3     1     1     2   502     0  5.002717494E+01  5.511097218E+01 -3.421225752E+02  3.501253974E+02  5.394796609E-06  0.00000E+00  9.000E+00
#rwgt            1           1   2.7857908406632992E-002           5      385464           0
</event>
<event>
      5   9999  3.79277E-02  3.32099E+01 -1.00000E+00  1.50036E-01
       1    -1     0     0   502     0  0.000000000E+00  0.000000000E+00  3.830574982E+02  3.830574982E+02  0.000000000E+00  0.00000E+00  9.000E+00
      21    -1     0     0   501   502  0.000000000E+00  0.000000000E+00 -5.519661948E+02  5.519661948E+02  0.000000000E+00  0.00000E+00  9.000E+00
      25     1     1     2     0     0 -4.736610588E+01 -2.053439043E+02 -4.117748043E+02  4.791588009E+02  1.250000000E+02  0.00000E+00  9.000E+00
      25     1     1     2     0     0  1.600956457E+01  2.162831299E+02  4.389176177E+01  2.541381222E+02  1.250000000E+02  0.00000E+00  9.000E+00
       1     1     1     2   501     0  3.135654130E+01 -1.093922553E+01  1.989743459E+02  2.017267698E+02  2.697398305E-06  0.00000E+00  9.000E+00
#rwgt            2          17   7.0946469643953170E-005           5      385560           0
</event>
<event>
      5   9999 -3.79277E-02  8.22202E+01 -1.00000E+00  1.27777E-01
      21    -1     0     0   502   501  0.000000000E+00  0.000000000E+00  1.668518215E+02  1.668518215E+02  0.000000000E+00  0.00000E+00  9.000E+00
      21    -1     0     0   511   502  0.000000000E+00  0.000000000E+00 -5.650314059E+02  5.650314059E+02  0.000000000E+00  0.00000E+00  9.000E+00
      25     1     1     2     0     0  1.146914009E+02 -1.131917423E+02 -2.368411968E+02  3.125463813E+02  1.250000000E+02  0.00000E+00  9.000E+00
      25     1     1     2     0     0 -1.963480821E+02  1.228018477E+02 -3.066602185E+01  2.649495575E+02  1.250000000E+02  0.00000E+00  9.000E+00
      21     1     1     2   511   501  8.165668118E+01 -9.610105407E+00 -1.306723657E+02  1.543872886E+02  0.000000000E+00  0.00000E+00  9.000E+00
#rwgt            1           1 -0.26121430194577472                5      385579           0
</event>
<event>
      5   9999  3.79277E-02  1.51767E+01 -1.00000E+00  1.76906E-01
      21    -1     0     0   502   501  0.000000000E+00  0.000000000E+00  9.131304087E+02  9.131304087E+02  0.000000000E+00  0.00000E+00  9.000E+00
      21    -1     0     0   512   502  0.000000000E+00  0.000000000E+00 -1.650175673E+02  1.650175673E+02  0.000000000E+00  0.00000E+00  9.000E+00
      25     1     1     2     0     0  4.853542533E+01  9.771464190E+00  3.733610198E+02  3.968307197E+02  1.250000000E+02  0.00000E+00  9.000E+00
      25     1     1     2     0     0 -3.645247210E+01 -5.881512379E-01  5.196050702E+02  5.356711282E+02  1.250000000E+02  0.00000E+00  9.000E+00
      21     1     1     2   512   501 -1.208295323E+01 -9.183312952E+00 -1.448532486E+02  1.456461280E+02  2.697398305E-06  0.00000E+00  9.000E+00
#rwgt            1           1   1.9368311089349693E-002           5      385835           0
</event>
<event>
      5   9999  3.79277E-02  6.20491E+01 -1.00000E+00  1.33929E-01
      21    -1     0     0   502   511  0.000000000E+00  0.000000000E+00  2.699950453E+02  2.699950453E+02  0.000000000E+00  0.00000E+00  9.000E+00
      21    -1     0     0   501   502  0.000000000E+00  0.000000000E+00 -4.393322602E+02  4.393322602E+02  0.000000000E+00  0.00000E+00  9.000E+00
      25     1     1     2     0     0  8.597367475E+01 -2.483765241E+01 -1.608019443E+01  1.545702248E+02  1.250000000E+02  0.00000E+00  9.000E+00
      25     1     1     2     0     0 -4.589256829E+01  7.220426462E+01 -3.323384753E+02  3.652306748E+02  1.250000000E+02  0.00000E+00  9.000E+00
      21     1     1     2   501   511 -4.008110646E+01 -4.736661221E+01  1.790814549E+02  1.895264059E+02  0.000000000E+00  0.00000E+00  9.000E+00
#rwgt            1           1   3.7873906746573184E-002           5      386122           0
</event>
<event>
      5   9999  3.79277E-02  4.77528E+01 -1.00000E+00  1.40225E-01
      21    -1     0     0   502   501  0.000000000E+00  0.000000000E+00  1.424871464E+03  1.424871464E+03  0.000000000E+00  0.00000E+00  9.000E+00
      21    -1     0     0   501   512  0.000000000E+00  0.000000000E+00 -2.354032943E+02  2.354032943E+02  0.000000000E+00  0.00000E+00  9.000E+00
      25     1     1     2     0     0  1.873861568E+02 -9.920387458E+01  3.695712760E+02  4.440303014E+02  1.250000000E+02  0.00000E+00  9.000E+00
      25     1     1     2     0     0 -2.119968176E+02  1.401262634E+02  9.951185911E+02  1.034632317E+03  1.250000000E+02  0.00000E+00  9.000E+00
      21     1     1     2   502   512  2.461066079E+01 -4.092238884E+01 -1.752216970E+02  1.816121406E+02  5.046370146E-06  0.00000E+00  9.000E+00
#rwgt            1           1   4.4907904359071750E-002           5      386210           0
</event>
<event>
      5   9999  3.79277E-02  3.02373E+01 -1.00000E+00  1.52803E-01
      21    -1     0     0   502   501  0.000000000E+00  0.000000000E+00  5.579185338E+02  5.579185338E+02  0.000000000E+00  0.00000E+00  9.000E+00
      21    -1     0     0   511   502  0.000000000E+00  0.000000000E+00 -1.005466943E+02  1.005466943E+02  0.000000000E+00  0.00000E+00  9.000E+00
      25     1     1     2     0     0 -1.426678171E+02  5.626044694E+01  3.245122213E+02  3.800691065E+02  1.250000000E+02  0.00000E+00  9.000E+00
      25     1     1     2     0     0  1.644177270E+02 -3.525478933E+01  1.329721472E+02  2.481585805E+02  1.250000000E+02  0.00000E+00  9.000E+00
      21     1     1     2   511   501 -2.174990991E+01 -2.100565761E+01 -1.125289233E-01  3.023754116E+01  1.423309550E-07  0.00000E+00  9.000E+00
#rwgt            1           1   4.7144590222016704E-002           5      386437           0
</event>
<event>
      5   9999  3.79277E-02  2.68841E+01 -1.00000E+00  1.56423E-01
      21    -1     0     0   502   512  0.000000000E+00  0.000000000E+00  6.186091133E+01  6.186091133E+01  0.000000000E+00  0.00000E+00  9.000E+00
      21    -1     0     0   501   502  0.000000000E+00  0.000000000E+00 -1.048341295E+03  1.048341295E+03  0.000000000E+00  0.00000E+00  9.000E+00
      25     1     1     2     0     0 -3.885599233E+01  1.474812906E+02 -8.004758127E+02  8.244070875E+02  1.250000000E+02  0.00000E+00  9.000E+00
      25     1     1     2     0     0  5.425846338E+01 -1.254467670E+02 -1.387369893E+02  2.314169925E+02  1.250000000E+02  0.00000E+00  9.000E+00
      21     1     1     2   501   512 -1.540247104E+01 -2.203452364E+01 -4.726758160E+01  5.437812627E+01  6.743495762E-07  0.00000E+00  9.000E+00
#rwgt            1           1   4.3621597477008653E-002           5      386670           0
</event>
<event>
      5   9999  3.79277E-02  3.72888E+01 -1.00000E+00  1.46756E-01
       2    -1     0     0   502     0  0.000000000E+00  0.000000000E+00  1.961767987E+03  1.961767987E+03  0.000000000E+00  0.00000E+00  9.000E+00
      21    -1     0     0   501   502  0.000000000E+00  0.000000000E+00 -3.167476759E+02  3.167476759E+02  0.000000000E+00  0.00000E+00  9.000E+00
      25     1     1     2     0     0  4.156732765E+00 -1.590891888E+02  1.415769075E+02  2.469730130E+02  1.250000000E+02  0.00000E+00  9.000E+00
      25     1     1     2     0     0 -2.296230215E+01  1.912887021E+02 -2.138716859E+02  3.138227731E+02  1.250000000E+02  0.00000E+00  9.000E+00
       2     1     1     2   501     0  1.880556938E+01 -3.219951325E+01  1.717315090E+03  1.717719877E+03  2.157918644E-05  0.00000E+00  9.000E+00
#rwgt            1           1   3.7328877142252199E-002           5      386774           0
</event>
<event>
      5   9999  3.79277E-02  5.32072E+01 -1.00000E+00  1.37552E-01
      21    -1     0     0   502   511  0.000000000E+00  0.000000000E+00  4.828282658E+02  4.828282658E+02  0.000000000E+00  0.00000E+00  9.000E+00
      21    -1     0     0   501   502  0.000000000E+00  0.000000000E+00 -8.990034352E+01  8.990034352E+01  0.000000000E+00  0.00000E+00  9.000E+00
      25     1     1     2     0     0 -9.074504272E+01  2.968975442E+01  3.357125391E+01  1.608358585E+02  1.250000000E+02  0.00000E+00  9.000E+00
      25     1     1     2     0     0  6.394609389E+01  1.627574359E+01  2.082179724E+02  2.516619296E+02  1.250000000E+02  0.00000E+00  9.000E+00
      21     1     1     2   501   511  2.679894883E+01 -4.596549801E+01  1.511386959E+02  1.602308212E+02  2.697398305E-06  0.00000E+00  9.000E+00
#rwgt            1           1   4.1706524311061206E-002           5      386968           0
</event>
<event>
      5   9999  3.79277E-02  5.21553E+01 -1.00000E+00  1.38038E-01
      21    -1     0     0   512   501  0.000000000E+00  0.000000000E+00  4.796041455E+02  4.796041455E+02  0.000000000E+00  0.00000E+00  9.000E+00
      21    -1     0     0   501   502  0.000000000E+00  0.000000000E+00 -1.417962005E+02  1.417962005E+02  0.000000000E+00  0.00000E+00  9.000E+00
      25     1     1     2     0     0 -1.963047984E+01  8.781731951E+01  3.077000648E+02  3.440952880E+02  1.250000000E+02  0.00000E+00  9.000E+00
      25     1     1     2     0     0  1.181989060E+01 -1.393844387E+02 -3.811484302E+01  1.914300730E+02  1.250000000E+02  0.00000E+00  9.000E+00
      21     1     1     2   512   502  7.810589243E+00  5.156711924E+01  6.822272321E+01  8.587498503E+01  9.536743164E-07  0.00000E+00  9.000E+00
#rwgt            1           1   3.9302359830106444E-002           5      387087           0
</event>
<event>
      5   9999  3.79277E-02  2.44480E+01 -1.00000E+00  1.59481E-01
      21    -1     0     0   502   511  0.000000000E+00  0.000000000E+00  7.205858374E+02  7.205858374E+02  0.000000000E+00  0.00000E+00  9.000E+00
      21    -1     0     0   501   502  0.000000000E+00  0.000000000E+00 -5.943800368E+01  5.943800368E+01  0.000000000E+00  0.00000E+00  9.000E+00
      25     1     1     2     0     0 -2.338056112E+01 -8.723815108E+01  4.634115630E+02  4.883978116E+02  1.250000000E+02  0.00000E+00  9.000E+00
      25     1     1     2     0     0  1.045685090E+01  6.648529791E+01  6.409202833E+01  1.557640159E+02  1.250000000E+02  0.00000E+00  9.000E+00
      21     1     1     2   501   511  1.292371022E+01  2.075285317E+01  1.336442424E+02  1.358620135E+02  0.000000000E+00  0.00000E+00  9.000E+00
#rwgt            1           1   4.5174707601185388E-002           5      387277           0
</event>
<event>
      5   9999  3.79277E-02  4.74223E+01 -1.00000E+00  1.40400E-01
      21    -1     0     0   512   501  0.000000000E+00  0.000000000E+00  4.770251052E+02  4.770251052E+02  0.000000000E+00  0.00000E+00  9.000E+00
      21    -1     0     0   501   502  0.000000000E+00  0.000000000E+00 -4.089238245E+02  4.089238245E+02  0.000000000E+00  0.00000E+00  9.000E+00
      25     1     1     2     0     0 -1.099171941E+01 -2.809869826E+02 -1.052988318E+02  3.252496676E+02  1.250000000E+02  0.00000E+00  9.000E+00
      25     1     1     2     0     0  5.566764825E+01  2.968910124E+02 -5.142514666E+01  3.309270403E+02  1.250000000E+02  0.00000E+00  9.000E+00
      21     1     1     2   512   502 -4.467592885E+01 -1.590402979E+01  2.248252591E+02  2.297722218E+02  3.814697266E-06  0.00000E+00  9.000E+00
#rwgt            1           1   3.8868729197790455E-002           5      387447           0
</event>
<event>
      5   9999  3.79277E-02  1.19075E+01 -1.00000E+00  1.87382E-01
      21    -1     0     0   502   501  0.000000000E+00  0.000000000E+00  3.812111815E+01  3.812111815E+01  0.000000000E+00  0.00000E+00  9.000E+00
      21    -1     0     0   511   502  0.000000000E+00  0.000000000E+00 -1.810750446E+03  1.810750446E+03  0.000000000E+00  0.00000E+00  9.000E+00
      25     1     1     2     0     0 -1.171972506E+02  2.865080013E+00 -6.826341702E+02  7.038166057E+02  1.250000000E+02  0.00000E+00  9.000E+00
      25     1     1     2     0     0  1.053716482E+02 -4.259465657E+00 -2.157532228E+02  2.707319346E+02  1.250000000E+02  0.00000E+00  9.000E+00
      21     1     1     2   511   501  1.182560239E+01  1.394385644E+00 -8.742419345E+02  8.743230234E+02  1.525878906E-05  0.00000E+00  9.000E+00
#rwgt            1           1   3.3501851219602391E-002           5      387640           0
</event>
<event>
      5   9999  3.79277E-02  7.72968E+01 -1.00000E+00  1.29076E-01
      21    -1     0     0   502   501  0.000000000E+00  0.000000000E+00  6.730362818E+02  6.730362818E+02  0.000000000E+00  0.00000E+00  9.000E+00
      21    -1     0     0   501   512  0.000000000E+00  0.000000000E+00 -1.030959840E+02  1.030959840E+02  0.000000000E+00  0.00000E+00  9.000E+00
      25     1     1     2     0     0  1.146579751E+02 -4.597266139E+01  4.968376410E+02  5.270033951E+02  1.250000000E+02  0.00000E+00  9.000E+00
      25     1     1     2     0     0 -9.040511575E+01 -2.742080670E+01  7.043001578E+01  1.717858339E+02  1.250000000E+02  0.00000E+00  9.000E+00
      21     1     1     2   502   512 -2.425285939E+01  7.339346809E+01  2.672641002E+00  7.734303690E+01  1.786897148E-06  0.00000E+00  9.000E+00
#rwgt            1           1   4.3108175312819276E-002           5      387933           0
</event>
<event>
      5   9999  3.79277E-02  5.82249E+00 -1.00000E+00  2.27517E-01
      21    -1     0     0   511   501  0.000000000E+00  0.000000000E+00  8.305129589E+01  8.305129589E+01  0.000000000E+00  0.00000E+00  9.000E+00
      21    -1     0     0   501   502  0.000000000E+00  0.000000000E+00 -8.744261731E+02  8.744261731E+02  0.000000000E+00  0.00000E+00  9.000E+00
      25     1     1     2     0     0  4.798124395E+00  2.318823547E+02 -3.841436845E+02  4.658152196E+02  1.250000000E+02  0.00000E+00  9.000E+00
      25     1     1     2     0     0 -7.294968070E+00 -2.371423148E+02 -4.042759767E+02  4.851327234E+02  1.250000000E+02  0.00000E+00  9.000E+00
      21     1     1     2   511   502  2.496843675E+00  5.259960044E+00 -2.955216067E+00  6.529526017E+00  4.214684851E-08  0.00000E+00  9.000E+00
#rwgt            1           1   3.5815886744290058E-002           5      387994           0
</event>
<event>
      5   9999  3.79277E-02  2.86890E+01 -1.00000E+00  1.54400E-01
      21    -1     0     0   502   501  0.000000000E+00  0.000000000E+00  3.080084237E+02  3.080084237E+02  0.000000000E+00  0.00000E+00  9.000E+00
      21    -1     0     0   512   502  0.000000000E+00  0.000000000E+00 -3.229975823E+02  3.229975823E+02  0.000000000E+00  0.00000E+00  9.000E+00
      25     1     1     2     0     0 -2.314675832E+02 -5.712010444E+01  1.507218695E+02  3.085158510E+02  1.250000000E+02  0.00000E+00  9.000E+00
      25     1     1     2     0     0  2.077849916E+02  4.092772027E+01 -1.352866901E+02  2.806727089E+02  1.250000000E+02  0.00000E+00  9.000E+00
      21     1     1     2   512   501  2.368259158E+01  1.619238417E+01 -3.042433798E+01  4.181744600E+01  3.371747881E-07  0.00000E+00  9.000E+00
#rwgt            1           1   3.6806415850548849E-002           5      388378           0
</event>
<event>
      5   9999  3.79277E-02  1.12781E+01 -1.00000E+00  1.89907E-01
      21    -1     0     0   502   501  0.000000000E+00  0.000000000E+00  3.889899469E+02  3.889899469E+02  0.000000000E+00  0.00000E+00  9.000E+00
      21    -1     0     0   501   511  0.000000000E+00  0.000000000E+00 -2.501757760E+02  2.501757760E+02  0.000000000E+00  0.00000E+00  9.000E+00
      25     1     1     2     0     0  7.059189069E+00 -8.483082955E+01 -3.558739893E+01  1.553626878E+02  1.250000000E+02  0.00000E+00  9.000E+00
      25     1     1     2     0     0  4.213237178E+00  8.447468234E+01  3.115549882E+02  3.461867040E+02  1.250000000E+02  0.00000E+00  9.000E+00
      21     1     1     2   502   511 -1.127242625E+01  3.561472089E-01 -1.371534184E+02  1.376163312E+02  1.907348633E-06  0.00000E+00  9.000E+00
#rwgt            1           1   4.5029697635664556E-002           5      388589           0
</event>
<event>
      5   9999  3.79277E-02  2.44143E+01 -1.00000E+00  1.59526E-01
      21    -1     0     0   502   501  0.000000000E+00  0.000000000E+00  4.613984105E+02  4.613984105E+02  0.000000000E+00  0.00000E+00  9.000E+00
      21    -1     0     0   512   502  0.000000000E+00  0.000000000E+00 -3.748995053E+02  3.748995053E+02  0.000000000E+00  0.00000E+00  9.000E+00
      25     1     1     2     0     0  9.523490025E+01 -2.917161626E+02  2.635075465E+02  4.233547364E+02  1.250000000E+02  0.00000E+00  9.000E+00
      25     1     1     2     0     0 -1.195253649E+02  2.941724314E+02 -1.405320694E+02  3.690501250E+02  1.250000000E+02  0.00000E+00  9.000E+00
      21     1     1     2   512   501  2.429046461E+01 -2.456268729E+00 -3.647657194E+01  4.389305443E+01  8.259061849E-07  0.00000E+00  9.000E+00
#rwgt            1           1   6.3490621475369963E-002           5      388840           0
</event>
<event>
      5   9999  3.79277E-02  4.25809E+01 -1.00000E+00  1.43176E-01
      21    -1     0     0   511   501  0.000000000E+00  0.000000000E+00  7.861154738E+01  7.861154738E+01  0.000000000E+00  0.00000E+00  9.000E+00
      21    -1     0     0   501   502  0.000000000E+00  0.000000000E+00 -1.133161071E+03  1.133161071E+03  0.000000000E+00  0.00000E+00  9.000E+00
      25     1     1     2     0     0  1.041858639E+02  1.511148676E+02 -7.999107499E+02  8.301642038E+02  1.250000000E+02  0.00000E+00  9.000E+00
      25     1     1     2     0     0 -1.461441665E+02 -1.438599831E+02 -2.013855322E+02  3.134245439E+02  1.250000000E+02  0.00000E+00  9.000E+00
      21     1     1     2   511   502  4.195830258E+01 -7.254884503E+00 -5.325324198E+01  6.818387116E+01  9.536743164E-07  0.00000E+00  9.000E+00
#rwgt            1           1   4.5197236137543485E-002           5      389101           0
</event>
<event>
      5   9999  3.79277E-02  2.00701E+01 -1.00000E+00  1.66244E-01
      21    -1     0     0   502   501  0.000000000E+00  0.000000000E+00  4.223803917E+02  4.223803917E+02  0.000000000E+00  0.00000E+00  9.000E+00
      21    -1     0     0   501   512  0.000000000E+00  0.000000000E+00 -9.187630019E+01  9.187630019E+01  0.000000000E+00  0.00000E+00  9.000E+00
      25     1     1     2     0     0  8.818101054E+01  7.634656154E+01  8.629887546E+01  1.915128820E+02  1.250000000E+02  0.00000E+00  9.000E+00
      25     1     1     2     0     0 -6.819198586E+01 -7.814895150E+01  2.531442323E+02  3.007730172E+02  1.250000000E+02  0.00000E+00  9.000E+00
      21     1     1     2   502   512 -1.998902467E+01  1.802389953E+00 -8.939016242E+00  2.197079262E+01  3.576278687E-07  0.00000E+00  9.000E+00
#rwgt            1           1   4.2042197854613397E-002           5      389226           0
</event>
<event>
      5   9999  3.79277E-02  2.74210E+01 -1.00000E+00  1.55802E-01
      21    -1     0     0   502   501  0.000000000E+00  0.000000000E+00  1.423160903E+02  1.423160903E+02  0.000000000E+00  0.00000E+00  9.000E+00
      21    -1     0     0   501   511  0.000000000E+00  0.000000000E+00 -2.158032029E+02  2.158032029E+02  0.000000000E+00  0.00000E+00  9.000E+00
      25     1     1     2     0     0 -8.392008803E+01  2.207979438E+01 -2.806640000E+01  1.547346804E+02  1.250000000E+02  0.00000E+00  9.000E+00
      25     1     1     2     0     0  1.022273501E+02 -4.249435118E+01 -2.422081552E+01  1.687241799E+02  1.250000000E+02  0.00000E+00  9.000E+00
      21     1     1     2   502   511 -1.830726209E+01  2.041455680E+01 -2.119989708E+01  3.466043293E+01  7.907449699E-07  0.00000E+00  9.000E+00
#rwgt            1           1   4.8483319306033903E-002           5      389388           0
</event>
<event>
      5   9999  3.79277E-02  4.84172E+01 -1.00000E+00  1.39877E-01
      21    -1     0     0   502   501  0.000000000E+00  0.000000000E+00  6.430951177E+01  6.430951177E+01  0.000000000E+00  0.00000E+00  9.000E+00
      21    -1     0     0   512   502  0.000000000E+00  0.000000000E+00 -1.410051109E+03  1.410051109E+03  0.000000000E+00  0.00000E+00  9.000E+00
      25     1     1     2     0     0  1.056781413E+02 -1.078583909E+02 -1.444299158E+02  2.434877874E+02  1.250000000E+02  0.00000E+00  9.000E+00
      25     1     1     2     0     0 -1.021955864E+02  5.956660459E+01 -5.178324271E+02  5.456808049E+02  1.250000000E+02  0.00000E+00  9.000E+00
      21     1     1     2   512   501 -3.482554894E+00  4.829178633E+01 -6.834792545E+02  6.851920287E+02  1.525878906E-05  0.00000E+00  9.000E+00
#rwgt            1           1   2.6164416574410439E-002           5      389532           0
</event>
<event>
      5   9999  3.79277E-02  1.27174E+02 -1.00000E+00  1.19308E-01
      21    -1     0     0   502   501  0.000000000E+00  0.000000000E+00  1.303191709E+02  1.303191709E+02  0.000000000E+00  0.00000E+00  9.000E+00
      21    -1     0     0   511   502  0.000000000E+00  0.000000000E+00 -9.674403722E+02  9.674403722E+02  0.000000000E+00  0.00000E+00  9.000E+00
      25     1     1     2     0     0 -4.473010822E+01 -2.769539256E+01 -4.521677268E+02  4.720682901E+02  1.250000000E+02  0.00000E+00  9.000E+00
      25     1     1     2     0     0 -4.244794075E+01 -6.489686577E+01  6.300876245E+01  1.600266697E+02  1.250000000E+02  0.00000E+00  9.000E+00
      21     1     1     2   511   501  8.717804896E+01  9.259225833E+01 -4.479622368E+02  4.656645833E+02  5.394796609E-06  0.00000E+00  9.000E+00
#rwgt            2          11   1.5648878753628593E-003           5      389847           0
</event>
<event>
      5   9999  3.79277E-02  1.98615E+01 -1.00000E+00  1.66618E-01
      21    -1     0     0   512   501  0.000000000E+00  0.000000000E+00  2.259338939E+03  2.259338939E+03  0.000000000E+00  0.00000E+00  9.000E+00
      21    -1     0     0   501   502  0.000000000E+00  0.000000000E+00 -4.259443716E+02  4.259443716E+02  0.000000000E+00  0.00000E+00  9.000E+00
      25     1     1     2     0     0  1.089254753E+02  1.118334851E+02  4.651190998E+01  2.053286276E+02  1.250000000E+02  0.00000E+00  9.000E+00
      25     1     1     2     0     0 -1.136971151E+02 -9.255365787E+01 -3.197075461E+02  3.732708515E+02  1.250000000E+02  0.00000E+00  9.000E+00
      21     1     1     2   512   502  4.771639868E+00 -1.927982722E+01  2.106590203E+03  2.106683831E+03  3.051757812E-05  0.00000E+00  9.000E+00
#rwgt            1           1   4.0770068794110326E-002           5      389897           0
</event>
<event>
      5   9999  3.79277E-02  4.15193E+01 -1.00000E+00  1.43843E-01
       2    -1     0     0   502     0  0.000000000E+00  0.000000000E+00  3.104214307E+03  3.104214307E+03  0.000000000E+00  0.00000E+00  9.000E+00
      21    -1     0     0   501   502  0.000000000E+00  0.000000000E+00 -5.532491382E+02  5.532491382E+02  0.000000000E+00  0.00000E+00  9.000E+00
      25     1     1     2     0     0 -4.536597854E+01 -1.428648182E+02 -2.891431384E+02  3.488512330E+02  1.250000000E+02  0.00000E+00  9.000E+00
      25     1     1     2     0     0  6.882926293E+01  1.086109197E+02 -1.997686686E+02  2.684517094E+02  1.250000000E+02  0.00000E+00  9.000E+00
       2     1     1     2   501     0 -2.346328439E+01  3.425389853E+01  3.039876976E+03  3.040160503E+03  0.000000000E+00  0.00000E+00  9.000E+00
#rwgt            1           1   7.9854886566673194E-002           5      390080           0
</event>
<event>
      5   9999  3.79277E-02  1.47179E+01 -1.00000E+00  1.78164E-01
      21    -1     0     0   511   501  0.000000000E+00  0.000000000E+00  7.445103481E+01  7.445103481E+01  0.000000000E+00  0.00000E+00  9.000E+00
      21    -1     0     0   501   502  0.000000000E+00  0.000000000E+00 -4.168261621E+02  4.168261621E+02  0.000000000E+00  0.00000E+00  9.000E+00
      25     1     1     2     0     0 -1.908892793E+01  3.619980972E+01 -2.417002297E+01  1.337310862E+02  1.250000000E+02  0.00000E+00  9.000E+00
      25     1     1     2     0     0  1.031236055E+01 -4.801459397E+01 -3.150679844E+02  3.424975632E+02  1.250000000E+02  0.00000E+00  9.000E+00
      21     1     1     2   511   502  8.776567381E+00  1.181478426E+01 -3.137119929E+00  1.504854755E+01  2.980232239E-07  0.00000E+00  9.000E+00
#rwgt            1           1   4.8217234200523318E-002           5      390195           0
</event>
<event>
      5   9999  3.79277E-02  2.96563E+01 -1.00000E+00  1.53388E-01
      21    -1     0     0   502   501  0.000000000E+00  0.000000000E+00  2.731892120E+01  2.731892120E+01  0.000000000E+00  0.00000E+00  9.000E+00
       2    -1     0     0   501     0  0.000000000E+00  0.000000000E+00 -3.690120680E+03  3.690120680E+03  0.000000000E+00  0.00000E+00  9.000E+00
      25     1     1     2     0     0 -4.859650105E+01  9.714085557E+01 -3.375358852E+02  3.759699982E+02  1.250000000E+02  0.00000E+00  9.000E+00
      25     1     1     2     0     0  2.679776654E+01 -1.172483279E+02 -9.311341499E+02  9.471542091E+02  1.250000000E+02  0.00000E+00  9.000E+00
       2     1     1     2   502     0  2.179873450E+01  2.010747230E+01 -2.394131724E+03  2.394315394E+03  0.000000000E+00  0.00000E+00  9.000E+00
#rwgt            1           1   4.0328088779948090E-002           5      390344           0
</event>
<event>
      5   9999  3.79277E-02  7.59811E+00 -1.00000E+00  2.10641E-01
      21    -1     0     0   502   501  0.000000000E+00  0.000000000E+00  1.343081728E+02  1.343081728E+02  0.000000000E+00  0.00000E+00  9.000E+00
      21    -1     0     0   511   502  0.000000000E+00  0.000000000E+00 -4.104537484E+02  4.104537484E+02  0.000000000E+00  0.00000E+00  9.000E+00
      25     1     1     2     0     0 -8.088959660E+01 -1.698822824E+02 -1.033705536E+02  2.484221972E+02  1.250000000E+02  0.00000E+00  9.000E+00
      25     1     1     2     0     0  8.419020361E+01  1.767260596E+02 -1.620885900E+02  2.832274732E+02  1.250000000E+02  0.00000E+00  9.000E+00
      21     1     1     2   511   501 -3.300607010E+00 -6.843777176E+00 -1.068643193E+01  1.311225077E+01  0.000000000E+00  0.00000E+00  9.000E+00
#rwgt            1           1   2.1231292138493330E-002           5      390439           0
</event>
<event>
      5   9999  3.79277E-02  2.13667E+01 -1.00000E+00  1.64035E-01
      21    -1     0     0   512   501  0.000000000E+00  0.000000000E+00  1.410355829E+03  1.410355829E+03  0.000000000E+00  0.00000E+00  9.000E+00
      21    -1     0     0   501   502  0.000000000E+00  0.000000000E+00 -3.438046553E+01  3.438046553E+01  0.000000000E+00  0.00000E+00  9.000E+00
      25     1     1     2     0     0 -1.346835033E+02  7.998378342E+01  4.050209824E+02  4.518894199E+02  1.250000000E+02  0.00000E+00  9.000E+00
      25     1     1     2     0     0  1.134224482E+02 -7.786169910E+01  8.612140743E+02  8.810458432E+02  1.250000000E+02  0.00000E+00  9.000E+00
      21     1     1     2   512   502  2.126105511E+01 -2.122084323E+00  1.097403071E+02  1.118010318E+02  1.348699152E-06  0.00000E+00  9.000E+00
#rwgt            1           1   2.9562418758794225E-002           5      390722           0
</event>
<event>
      5   9999  3.79277E-02  2.24662E+01 -1.00000E+00  1.62307E-01
      21    -1     0     0   502   501  0.000000000E+00  0.000000000E+00  3.348181110E+02  3.348181110E+02  0.000000000E+00  0.00000E+00  9.000E+00
      21    -1     0     0   501   511  0.000000000E+00  0.000000000E+00 -2.754209495E+02  2.754209495E+02  0.000000000E+00  0.00000E+00  9.000E+00
      25     1     1     2     0     0  1.039800202E+02 -6.146581954E+01 -1.828870739E+02  2.523144336E+02  1.250000000E+02  0.00000E+00  9.000E+00
      25     1     1     2     0     0 -1.263836866E+02  5.979046455E+01  2.658639156E+02  3.253557399E+02  1.250000000E+02  0.00000E+00  9.000E+00
      21     1     1     2   502   511  2.240366639E+01  1.675354993E+00 -2.357968015E+01  3.256888696E+01  3.371747881E-07  0.00000E+00  9.000E+00
#rwgt            1           1   4.0750305363897898E-002           5      391050           0
</event>
<event>
      5   9999  3.79277E-02  4.17119E+01 -1.00000E+00  1.43720E-01
      -1    -1     0     0     0   501  0.000000000E+00  0.000000000E+00  5.818319371E+02  5.818319371E+02  0.000000000E+00  0.00000E+00  9.000E+00
      21    -1     0     0   501   502  0.000000000E+00  0.000000000E+00 -1.535162770E+02  1.535162770E+02  0.000000000E+00  0.00000E+00  9.000E+00
      25     1     1     2     0     0 -4.466643718E+00  1.857022905E+02  2.126485755E+02  3.087874807E+02  1.250000000E+02  0.00000E+00  9.000E+00
      25     1     1     2     0     0  1.286885690E+01 -2.265591886E+02  6.071685887E+01  2.660943637E+02  1.250000000E+02  0.00000E+00  9.000E+00
      -1     1     1     2     0   502 -8.402213181E+00  4.085689816E+01  1.549502258E+02  1.604663697E+02  0.000000000E+00  0.00000E+00  9.000E+00
#rwgt            1           1   3.2160283870202512E-002           5      391145           0
</event>
<event>
      5   9999  3.79277E-02  4.95085E+01 -1.00000E+00  1.39321E-01
      21    -1     0     0   502   501  0.000000000E+00  0.000000000E+00  1.600902765E+03  1.600902765E+03  0.000000000E+00  0.00000E+00  9.000E+00
      21    -1     0     0   501   511  0.000000000E+00  0.000000000E+00 -1.716628320E+02  1.716628320E+02  0.000000000E+00  0.00000E+00  9.000E+00
      25     1     1     2     0     0 -2.332941596E+01 -3.214512523E+00  1.130679901E+02  1.701880287E+02  1.250000000E+02  0.00000E+00  9.000E+00
      25     1     1     2     0     0 -2.550194596E+01 -4.945930061E+00  1.452106388E+03  1.457708055E+03  1.250000000E+02  0.00000E+00  9.000E+00
      21     1     1     2   502   511  4.883136192E+01  8.160442584E+00 -1.359344451E+02  1.446695133E+02  4.264961200E-06  0.00000E+00  9.000E+00
#rwgt            1           1   3.3234726203320693E-002           5      391275           0
</event>
<event>
      5   9999 -3.79277E-02  7.13378E+01 -1.00000E+00  1.30806E-01
      21    -1     0     0   502   501  0.000000000E+00  0.000000000E+00  2.229608861E+02  2.229608861E+02  0.000000000E+00  0.00000E+00  9.000E+00
      21    -1     0     0   512   502  0.000000000E+00  0.000000000E+00 -3.934189808E+02  3.934189808E+02  0.000000000E+00  0.00000E+00  9.000E+00
      25     1     1     2     0     0 -2.599656357E+01 -9.904148985E+01  2.455688984E+00  1.616046671E+02  1.250000000E+02  0.00000E+00  9.000E+00
      25     1     1     2     0     0  9.252051044E+01  1.248028125E+02  6.235935675E+01  2.089245707E+02  1.250000000E+02  0.00000E+00  9.000E+00
      21     1     1     2   512   501 -6.652394687E+01 -2.576132265E+01 -2.352731404E+02  2.458506291E+02  0.000000000E+00  0.00000E+00  9.000E+00
#rwgt            1           1  -3.0317708347207841E-002           5      391406           0
</event>
<event>
      5   9999  3.79277E-02  1.15674E+01 -1.00000E+00  1.88720E-01
      21    -1     0     0   502   511  0.000000000E+00  0.000000000E+00  4.403653600E+01  4.403653600E+01  0.000000000E+00  0.00000E+00  9.000E+00
      21    -1     0     0   501   502  0.000000000E+00  0.000000000E+00 -7.458505699E+02  7.458505699E+02  0.000000000E+00  0.00000E+00  9.000E+00
      25     1     1     2     0     0 -5.125792430E+01  1.055017020E+02 -4.523566680E+02  4.837453246E+02  1.250000000E+02  0.00000E+00  9.000E+00
      25     1     1     2     0     0  5.458502575E+01 -9.442309150E+01 -2.326078965E+02  2.857038305E+02  1.250000000E+02  0.00000E+00  9.000E+00
      21     1     1     2   501   511 -3.327101448E+00 -1.107861055E+01 -1.684946941E+01  2.043795086E+01  2.384185791E-07  0.00000E+00  9.000E+00
#rwgt            1           1   4.7049147442364180E-002           5      391498           0
</event>
<event>
      5   9999  3.79277E-02  4.18558E+01 -1.00000E+00  1.43629E-01
      21    -1     0     0   502   501  0.000000000E+00  0.000000000E+00  9.097892721E+01  9.097892721E+01  0.000000000E+00  0.00000E+00  9.000E+00
      21    -1     0     0   512   502  0.000000000E+00  0.000000000E+00 -3.446808748E+02  3.446808748E+02  0.000000000E+00  0.00000E+00  9.000E+00
      25     1     1     2     0     0  3.321507896E+01  7.264335664E+01 -6.456614935E+01  1.617840733E+02  1.250000000E+02  0.00000E+00  9.000E+00
      25     1     1     2     0     0 -6.162515813E+01 -4.190620917E+01 -1.035697799E+02  1.786210788E+02  1.250000000E+02  0.00000E+00  9.000E+00
      21     1     1     2   512   501  2.841007917E+01 -3.073714747E+01 -8.556601841E+01  9.525464997E+01  1.348699152E-06  0.00000E+00  9.000E+00
#rwgt            1           1   6.7905121370003610E-002           5      391683           0
</event>
<event>
      5   9999  3.79277E-02  1.34533E+02 -1.00000E+00  1.18298E-01
      21    -1     0     0   511   501  0.000000000E+00  0.000000000E+00  3.444167601E+02  3.444167601E+02  0.000000000E+00  0.00000E+00  9.000E+00
      21    -1     0     0   501   502  0.000000000E+00  0.000000000E+00 -1.564289724E+02  1.564289724E+02  0.000000000E+00  0.00000E+00  9.000E+00
      25     1     1     2     0     0 -7.088590641E+00 -6.618888822E-01  5.779892809E+01  1.378999721E+02  1.250000000E+02  0.00000E+00  9.000E+00
      25     1     1     2     0     0  4.522418015E+01 -1.283529147E+02  1.422131973E+01  1.853292830E+02  1.250000000E+02  0.00000E+00  9.000E+00
      21     1     1     2   511   502 -3.813558951E+01  1.290148036E+02  1.159675399E+02  1.776164774E+02  3.303624740E-06  0.00000E+00  9.000E+00
#rwgt            1           1   6.1957994322016444E-002           5      391831           0
</event>
<event>
      5   9999  3.79277E-02  1.32559E+01 -1.00000E+00  1.82595E-01
      21    -1     0     0   512   501  0.000000000E+00  0.000000000E+00  3.242888014E+02  3.242888014E+02  0.000000000E+00  0.00000E+00  9.000E+00
      21    -1     0     0   501   502  0.000000000E+00  0.000000000E+00 -1.505290558E+02  1.505290558E+02  0.000000000E+00  0.00000E+00  9.000E+00
      25     1     1     2     0     0 -1.766852965E+02  2.441012191E+01  7.225424226E+01  2.294759760E+02  1.250000000E+02  0.00000E+00  9.000E+00
      25     1     1     2     0     0  1.657980018E+02 -1.684806844E+01  8.719015297E+01  2.258317019E+02  1.250000000E+02  0.00000E+00  9.000E+00
      21     1     1     2   512   502  1.088729466E+01 -7.562053467E+00  1.431535043E+01  1.951017928E+01  0.000000000E+00  0.00000E+00  9.000E+00
#rwgt            1           1   2.8370535915154760E-002           5      391879           0
</event>
<event>
      5   9999  3.79277E-02  1.70502E+01 -1.00000E+00  1.72298E-01
      21    -1     0     0   502   501  0.000000000E+00  0.000000000E+00  4.368952107E+02  4.368952107E+02  0.000000000E+00  0.00000E+00  9.000E+00
      21    -1     0     0   511   502  0.000000000E+00  0.000000000E+00 -3.455152953E+02  3.455152953E+02  0.000000000E+00  0.00000E+00  9.000E+00
      25     1     1     2     0     0  3.383066342E+02 -2.448192216E+01  3.393288359E+01  3.630801342E+02  1.250000000E+02  0.00000E+00  9.000E+00
      25     1     1     2     0     0 -3.551510273E+02  2.712314020E+01  8.499494506E+01  3.869328851E+02  1.250000000E+02  0.00000E+00  9.000E+00
      21     1     1     2   511   501  1.684439304E+01 -2.641218038E+00 -2.754791331E+01  3.239748659E+01  3.371747881E-07  0.00000E+00  9.000E+00
#rwgt            1           1   3.1146214247844153E-002           5      392186           0
</event>
<event>
      5   9999  3.79277E-02  5.01703E+01 -1.00000E+00  1.38991E-01
      21    -1     0     0   502   501  0.000000000E+00  0.000000000E+00  9.894984459E+02  9.894984459E+02  0.000000000E+00  0.00000E+00  9.000E+00
      21    -1     0     0   512   502  0.000000000E+00  0.000000000E+00 -5.223099656E+01  5.223099656E+01  0.000000000E+00  0.00000E+00  9.000E+00
      25     1     1     2     0     0  7.634112355E+01  9.419439837E+01  2.719259226E+02  3.229075088E+02  1.250000000E+02  0.00000E+00  9.000E+00
      25     1     1     2     0     0 -1.196062951E+02 -6.879387312E+01  6.313283716E+02  6.582087629E+02  1.250000000E+02  0.00000E+00  9.000E+00
      21     1     1     2   512   501  4.326517154E+01 -2.540052525E+01  3.401315521E+01  6.061317084E+01  8.259061849E-07  0.00000E+00  9.000E+00
#rwgt            1           1   4.1083059885988316E-002           5      392494           0
</event>
<event>
      5   9999  3.79277E-02  3.44343E+01 -1.00000E+00  1.48995E-01
      21    -1     0     0   502   511  0.000000000E+00  0.000000000E+00  2.749544758E+02  2.749544758E+02  0.000000000E+00  0.00000E+00  9.000E+00
      21    -1     0     0   501   502  0.000000000E+00  0.000000000E+00 -4.111573868E+02  4.111573868E+02  0.000000000E+00  0.00000E+00  9.000E+00
      25     1     1     2     0     0  7.577545171E+01  1.388473854E+02 -3.077670094E+02  3.679212519E+02  1.250000000E+02  0.00000E+00  9.000E+00
      25     1     1     2     0     0 -9.488947910E+01 -1.674896273E+02  1.661094628E+02  2.833269174E+02  1.250000000E+02  0.00000E+00  9.000E+00
      21     1     1     2   501   511  1.911402739E+01  2.864224186E+01  5.454635733E+00  3.486369334E+01  6.474721725E-07  0.00000E+00  9.000E+00
#rwgt            1           1   3.8175781777948600E-002           5      392602           0
</event>
<event>
      5   9999  3.79277E-02  2.01884E+01 -1.00000E+00  1.66034E-01
      21    -1     0     0   512   501  0.000000000E+00  0.000000000E+00  6.774344261E+02  6.774344261E+02  0.000000000E+00  0.00000E+00  9.000E+00
      21    -1     0     0   501   502  0.000000000E+00  0.000000000E+00 -1.015693178E+02  1.015693178E+02  0.000000000E+00  0.00000E+00  9.000E+00
      25     1     1     2     0     0 -9.466467785E+01 -1.748918148E+02  2.983861332E+02  3.797470640E+02  1.250000000E+02  0.00000E+00  9.000E+00
      25     1     1     2     0     0  7.522281287E+01  1.803309869E+02  1.641949386E+02  2.841878152E+02  1.250000000E+02  0.00000E+00  9.000E+00
      21     1     1     2   512   502  1.944186498E+01 -5.439172141E+00  1.132840365E+02  1.150688647E+02  1.907348633E-06  0.00000E+00  9.000E+00
#rwgt            1           1  0.34423101073370971                5      392760           0
</event>
<event>
      5   9999  3.79277E-02  1.08003E+02 -1.00000E+00  1.22343E-01
      21    -1     0     0   502   501  0.000000000E+00  0.000000000E+00  1.575550784E+02  1.575550784E+02  0.000000000E+00  0.00000E+00  9.000E+00
       2    -1     0     0   501     0  0.000000000E+00  0.000000000E+00 -8.680917797E+02  8.680917797E+02  0.000000000E+00  0.00000E+00  9.000E+00
      25     1     1     2     0     0  5.980779539E+01  2.327653118E+02 -3.436523081E+02  4.375826455E+02  1.250000000E+02  0.00000E+00  9.000E+00
      25     1     1     2     0     0  4.103018763E+01 -2.714467698E+02 -1.314621391E+02  3.290503292E+02  1.250000000E+02  0.00000E+00  9.000E+00
       2     1     1     2   502     0 -1.008379830E+02  3.868145801E+01 -2.354222542E+02  2.590138834E+02  5.394796609E-06  0.00000E+00  9.000E+00
#rwgt            1           1   2.6629701605012154E-002           5      393073           0
</event>
<event>
      5   9999  3.79277E-02  4.83388E+01 -1.00000E+00  1.39918E-01
       2    -1     0     0   502     0  0.000000000E+00  0.000000000E+00  1.595037538E+03  1.595037538E+03  0.000000000E+00  0.00000E+00  9.000E+00
      21    -1     0     0   501   502  0.000000000E+00  0.000000000E+00 -2.160621154E+02  2.160621154E+02  0.000000000E+00  0.00000E+00  9.000E+00
      25     1     1     2     0     0 -1.052908001E+02  5.821688213E+01 -1.109352022E+02  2.059295439E+02  1.250000000E+02  0.00000E+00  9.000E+00
      25     1     1     2     0     0  1.126016858E+02 -1.043418502E+01  6.692141354E+01  1.813601043E+02  1.250000000E+02  0.00000E+00  9.000E+00
       2     1     1     2   501     0 -7.310885692E+00 -4.778269710E+01  1.422989211E+03  1.423810005E+03  1.525878906E-05  0.00000E+00  9.000E+00
#rwgt            1           1   4.3535714321873857E-002           5      393219           0
</event>
<event>
      5   9999  3.79277E-02  3.07839E+01 -1.00000E+00  1.52266E-01
      21    -1     0     0   502   511  0.000000000E+00  0.000000000E+00  2.027991384E+02  2.027991384E+02  0.000000000E+00  0.00000E+00  9.000E+00
      21    -1     0     0   501   502  0.000000000E+00  0.000000000E+00 -3.612818764E+02  3.612818764E+02  0.000000000E+00  0.00000E+00  9.000E+00
      25     1     1     2     0     0  2.277549653E+01 -1.165853282E+02 -2.887483335E+02  3.363204753E+02  1.250000000E+02  0.00000E+00  9.000E+00
      25     1     1     2     0     0 -2.590785676E+01  8.596120593E+01  9.461611830E+01  1.806592256E+02  1.250000000E+02  0.00000E+00  9.000E+00
      21     1     1     2   501   511  3.132360227E+00  3.062412230E+01  3.564947715E+01  4.710131387E+01  4.768371582E-07  0.00000E+00  9.000E+00
#rwgt            1           1   4.1091401980761409E-002           5      393312           0
</event>
<event>
      5   9999  3.79277E-02  5.58043E+01 -1.00000E+00  1.36408E-01
      21    -1     0     0   502   501  0.000000000E+00  0.000000000E+00  1.099394902E+03  1.099394902E+03  0.000000000E+00  0.00000E+00  9.000E+00
      21    -1     0     0   512   502  0.000000000E+00  0.000000000E+00 -3.456696906E+02  3.456696906E+02  0.000000000E+00  0.00000E+00  9.000E+00
      25     1     1     2     0     0 -2.150983365E+01 -1.433715799E+02  4.325112842E+02  4.729789570E+02  1.250000000E+02  0.00000E+00  9.000E+00
      25     1     1     2     0     0  7.588638405E+01  1.308292272E+02  6.292000257E+02  6.590847460E+02  1.250000000E+02  0.00000E+00  9.000E+00
      21     1     1     2   512   501 -5.437655040E+01  1.254235264E+01 -3.079860987E+02  3.130008895E+02  8.529922400E-06  0.00000E+00  9.000E+00
#rwgt            1           1   8.1706807684187657E-003           5      393509           0
</event>
<event>
      5   9999  3.79277E-02  1.96494E+01 -1.00000E+00  1.67005E-01
      21    -1     0     0   502   511  0.000000000E+00  0.000000000E+00  8.479449392E+02  8.479449392E+02  0.000000000E+00  0.00000E+00  9.000E+00
      21    -1     0     0   501   502  0.000000000E+00  0.000000000E+00 -1.073324768E+02  1.073324768E+02  0.000000000E+00  0.00000E+00  9.000E+00
      25     1     1     2     0     0  5.835370937E+01 -1.254142180E+02  1.484256162E+01  1.870272256E+02  1.250000000E+02  0.00000E+00  9.000E+00
      25     1     1     2     0     0 -7.720022824E+01  1.309737748E+02  4.424895469E+02  4.842891740E+02  1.250000000E+02  0.00000E+00  9.000E+00
      21     1     1     2   501   511  1.884651887E+01 -5.559556760E+00  2.832803538E+02  2.839610164E+02  0.000000000E+00  0.00000E+00  9.000E+00
#rwgt            1           1   3.5034446120442375E-002           5      393640           0
</event>
<event>
      5   9999  3.79277E-02  3.76400E+01 -1.00000E+00  1.46497E-01
       2    -1     0     0   502     0  0.000000000E+00  0.000000000E+00  3.867310056E+03  3.867310056E+03  0.000000000E+00  0.00000E+00  9.000E+00
      21    -1     0     0   501   502  0.000000000E+00  0.000000000E+00 -1.407793413E+02  1.407793413E+02  0.000000000E+00  0.00000E+00  9.000E+00
      25     1     1     2     0     0 -8.843397301E+01  7.416699966E+01  3.054435803E+02  3.496313661E+02  1.250000000E+02  0.00000E+00  9.000E+00
      25     1     1     2     0     0  1.173156960E+02 -9.830446413E+01 -3.625303637E+01  2.009129733E+02  1.250000000E+02  0.00000E+00  9.000E+00
       2     1     1     2   501     0 -2.888172301E+01  2.413746447E+01  3.457340171E+03  3.457545058E+03  4.315837288E-05  0.00000E+00  9.000E+00
#rwgt            1           1   4.8597812890086203E-002           5      393800           0
</event>
<event>
      5   9999 -4.36442E-02  2.30478E+01 -1.00000E+00  1.61442E-01
      21    -1     0     0   502   511  0.000000000E+00  0.000000000E+00  1.840292407E+03  1.840292407E+03  0.000000000E+00  0.00000E+00  9.000E+00
      21    -1     0     0   501   502  0.000000000E+00  0.000000000E+00 -2.394384414E+01  2.394384414E+01  0.000000000E+00  0.00000E+00  9.000E+00
      25     1     1     2     0     0 -1.378742882E+02 -1.408945520E+00  6.760911868E+02  7.012386165E+02  1.250000000E+02  0.00000E+00  9.000E+00
      25     1     1     2     0     0  1.609194309E+02  1.059896444E+00  9.687333489E+02  9.899320622E+02  1.250000000E+02  0.00000E+00  9.000E+00
      21     1     1     2   501   511 -2.304514272E+01  3.490490760E-01  1.715240272E+02  1.730655724E+02  0.000000000E+00  0.00000E+00  9.000E+00
#rwgt            1           1 -0.24356415872403009                5      393987           0
</event>
<event>
      5   9999  3.79277E-02  5.88308E+01 -1.00000E+00  1.35162E-01
      21    -1     0     0   502   501  0.000000000E+00  0.000000000E+00  1.067896279E+03  1.067896279E+03  0.000000000E+00  0.00000E+00  9.000E+00
       1    -1     0     0   501     0  0.000000000E+00  0.000000000E+00 -1.395602013E+03  1.395602013E+03  0.000000000E+00  0.00000E+00  9.000E+00
      25     1     1     2     0     0  2.578941127E+01 -1.254352332E+02  2.572633546E+02  3.133823943E+02  1.250000000E+02  0.00000E+00  9.000E+00
      25     1     1     2     0     0 -8.444661411E+01  1.209187129E+02  7.699847691E+02  7.938854517E+02  1.250000000E+02  0.00000E+00  9.000E+00
       1     1     1     2   502     0  5.865720284E+01  4.516520307E+00 -1.354953858E+03  1.356230446E+03  2.642899792E-05  0.00000E+00  9.000E+00
#rwgt            1           1   3.6486091849812767E-002           5      394082           0
</event>
<event>
      5   9999  3.79277E-02  1.45502E+01 -1.00000E+00  1.78638E-01
      21    -1     0     0   502   501  0.000000000E+00  0.000000000E+00  1.730156337E+02  1.730156337E+02  0.000000000E+00  0.00000E+00  9.000E+00
      21    -1     0     0   501   511  0.000000000E+00  0.000000000E+00 -3.189035292E+02  3.189035292E+02  0.000000000E+00  0.00000E+00  9.000E+00
      25     1     1     2     0     0  8.918248312E+01  3.994908058E+01 -2.316235655E+02  2.807559802E+02  1.250000000E+02  0.00000E+00  9.000E+00
      25     1     1     2     0     0 -7.737979624E+01 -4.845825876E+01  1.049826556E+02  1.870352739E+02  1.250000000E+02  0.00000E+00  9.000E+00
      21     1     1     2   502   511 -1.180268688E+01  8.509178185E+00 -1.924698557E+01  2.412790883E+01  4.768371582E-07  0.00000E+00  9.000E+00
#rwgt            1           1   3.2607499755541801E-002           5      394195           0
</event>
<event>
      5   9999  3.79277E-02  9.70688E+01 -1.00000E+00  1.24412E-01
       1    -1     0     0   502     0  0.000000000E+00  0.000000000E+00  1.197247132E+03  1.197247132E+03  0.000000000E+00  0.00000E+00  9.000E+00
      21    -1     0     0   501   502  0.000000000E+00  0.000000000E+00 -1.455880225E+02  1.455880225E+02  0.000000000E+00  0.00000E+00  9.000E+00
      25     1     1     2     0     0 -2.761993111E+02  7.119598875E+01  2.925093200E+02  4.272489094E+02  1.250000000E+02  0.00000E+00  9.000E+00
      25     1     1     2     0     0  2.523105435E+02 -1.652793896E+02  2.906216939E+02  4.371085173E+02  1.250000000E+02  0.00000E+00  9.000E+00
       1     1     1     2   501     0  2.388876759E+01  9.408340081E+01  4.685280958E+02  4.784777279E+02  5.394796609E-06  0.00000E+00  9.000E+00
#rwgt            1           1   3.8160907755358318E-002           5      394440           0
</event>
<event>
      5   9999  3.79277E-02  2.94051E+01 -1.00000E+00  1.53646E-01
      21    -1     0     0   502   501  0.000000000E+00  0.000000000E+00  4.348385727E+02  4.348385727E+02  0.000000000E+00  0.00000E+00  9.000E+00
      -4    -1     0     0     0   502  0.000000000E+00  0.000000000E+00 -6.798495871E+02  6.798495871E+02  0.000000000E+00  0.00000E+00  9.000E+00
      25     1     1     2     0     0  2.515807582E+02 -2.968317113E+01  2.402533908E+02  3.708377817E+02  1.250000000E+02  0.00000E+00  9.000E+00
      25     1     1     2     0     0 -2.743612028E+02  1.108988253E+01 -4.787483740E+01  3.054734934E+02  1.250000000E+02  0.00000E+00  9.000E+00
      -4     1     1     2     0   501  2.278044464E+01  1.859328860E+01 -4.373895678E+02  4.383768847E+02  5.394796609E-06  0.00000E+00  9.000E+00
#rwgt            1           1   4.8911201362601096E-002           5      394489           0
</event>
<event>
      5   9999  3.79277E-02  4.15353E+01 -1.00000E+00  1.43833E-01
      21    -1     0     0   511   501  0.000000000E+00  0.000000000E+00  3.169164731E+02  3.169164731E+02  0.000000000E+00  0.00000E+00  9.000E+00
      21    -1     0     0   501   502  0.000000000E+00  0.000000000E+00 -3.449395520E+02  3.449395520E+02  0.000000000E+00  0.00000E+00  9.000E+00
      25     1     1     2     0     0  1.912627061E+02 -4.115771115E+01 -1.724198985E+02  2.891867931E+02  1.250000000E+02  0.00000E+00  9.000E+00
      25     1     1     2     0     0 -2.195644166E+02  1.075717795E+01  3.454896571E+01  2.552310345E+02  1.250000000E+02  0.00000E+00  9.000E+00
      21     1     1     2   511   502  2.830171057E+01  3.040053319E+01  1.098478539E+02  1.174381976E+02  1.907348633E-06  0.00000E+00  9.000E+00
#rwgt            1           1   2.7288065839758530E-002           5      394597           0
</event>
<event>
      5   9999  3.79277E-02  2.37556E+01 -1.00000E+00  1.60430E-01
      21    -1     0     0   502   501  0.000000000E+00  0.000000000E+00  1.134370713E+03  1.134370713E+03  0.000000000E+00  0.00000E+00  9.000E+00
      21    -1     0     0   512   502  0.000000000E+00  0.000000000E+00 -3.568884217E+01  3.568884217E+01  0.000000000E+00  0.00000E+00  9.000E+00
      25     1     1     2     0     0 -7.240803034E+01  6.957176846E+01  2.781296797E+02  3.210362480E+02  1.250000000E+02  0.00000E+00  9.000E+00
      25     1     1     2     0     0  5.847498831E+01 -5.033121281E+01  8.096819404E+02  8.228987786E+02  1.250000000E+02  0.00000E+00  9.000E+00
      21     1     1     2   512   501  1.393304203E+01 -1.924055565E+01  1.087025083E+01  2.612452861E+01  1.072883606E-06  0.00000E+00  9.000E+00
#rwgt            1           1   5.6841006610947861E-002           5      394744           0
</event>
<event>
      5   9999  3.79277E-02  3.33846E+00 -1.00000E+00  2.83457E-01
      21    -1     0     0   502   501  0.000000000E+00  0.000000000E+00  4.784089843E+02  4.784089843E+02  0.000000000E+00  0.00000E+00  9.000E+00
      21    -1     0     0   511   502  0.000000000E+00  0.000000000E+00 -1.695452373E+02  1.695452373E+02  0.000000000E+00  0.00000E+00  9.000E+00
      25     1     1     2     0     0  1.846468143E+02  2.572825400E+01  3.454326874E+02  4.119528257E+02  1.250000000E+02  0.00000E+00  9.000E+00
      25     1     1     2     0     0 -1.813911455E+02 -2.646710783E+01 -2.420049894E+01  2.231903215E+02  1.250000000E+02  0.00000E+00  9.000E+00
      21     1     1     2   511   501 -3.255668857E+00  7.388538371E-01 -1.236844141E+01  1.281107441E+01  2.384185791E-07  0.00000E+00  9.000E+00
#rwgt            1           1   3.9269116354012604E-002           5      394905           0
</event>
<event>
      5   9999  3.79277E-02  1.17455E+02 -1.00000E+00  1.20765E-01
      21    -1     0     0   512   501  0.000000000E+00  0.000000000E+00  1.341030140E+03  1.341030140E+03  0.000000000E+00  0.00000E+00  9.000E+00
      21    -1     0     0   501   502  0.000000000E+00  0.000000000E+00 -3.106409525E+02  3.106409525E+02  0.000000000E+00  0.00000E+00  9.000E+00
      25     1     1     2     0     0 -1.547247947E+02 -1.082691399E+02 -2.080687908E+02  3.075379497E+02  1.250000000E+02  0.00000E+00  9.000E+00
      25     1     1     2     0     0  3.741910517E+01  1.141923887E+02  1.010756306E+02  2.007022027E+02  1.250000000E+02  0.00000E+00  9.000E+00
      21     1     1     2   512   502  1.173056895E+02 -5.923248785E+00  1.137382348E+03  1.143430940E+03  1.525878906E-05  0.00000E+00  9.000E+00
#rwgt            1           1   3.2946893328220143E-002           5      395450           0
</event>
<event>
      5   9999  3.79277E-02  2.03823E+01 -1.00000E+00  1.65693E-01
      21    -1     0     0   502   501  0.000000000E+00  0.000000000E+00  4.085063266E+02  4.085063266E+02  0.000000000E+00  0.00000E+00  9.000E+00
      21    -1     0     0   511   502  0.000000000E+00  0.000000000E+00 -2.521725236E+02  2.521725236E+02  0.000000000E+00  0.00000E+00  9.000E+00
      25     1     1     2     0     0  2.585938232E+02  8.379115193E+01  1.198586082E+02  3.223085610E+02  1.250000000E+02  0.00000E+00  9.000E+00
      25     1     1     2     0     0 -2.782022773E+02 -7.822814930E+01  4.090315807E+01  3.175125490E+02  1.250000000E+02  0.00000E+00  9.000E+00
      21     1     1     2   511   501  1.960845410E+01 -5.563002629E+00 -4.427963279E+00  2.085774027E+01  1.332800375E-07  0.00000E+00  9.000E+00
#rwgt            1           1   3.4550413492302937E-002           5      395638           0
</event>
<event>
      5   9999  3.79277E-02  2.25349E+01 -1.00000E+00  1.62203E-01
      21    -1     0     0   502   501  0.000000000E+00  0.000000000E+00  4.345414001E+02  4.345414001E+02  0.000000000E+00  0.00000E+00  9.000E+00
      21    -1     0     0   512   502  0.000000000E+00  0.000000000E+00 -1.379716934E+02  1.379716934E+02  0.000000000E+00  0.00000E+00  9.000E+00
      25     1     1     2     0     0  6.155647981E+01  8.399896443E+00  3.688858122E+02  3.944128559E+02  1.250000000E+02  0.00000E+00  9.000E+00
      25     1     1     2     0     0 -5.866074906E+01  1.394822215E+01 -7.002770654E+01  1.554494003E+02  1.250000000E+02  0.00000E+00  9.000E+00
      21     1     1     2   512   501 -2.895730751E+00 -2.234811859E+01 -2.288398980E+00  2.265083731E+01  3.804905812E-07  0.00000E+00  9.000E+00
#rwgt            1           1   3.1492967872411057E-002           5      395841           0
</event>
<event>
      5   9999  3.79277E-02  1.81786E+01 -1.00000E+00  1.69865E-01
       2    -1     0     0   502     0  0.000000000E+00  0.000000000E+00  3.574102011E+02  3.574102011E+02  0.000000000E+00  0.00000E+00  9.000E+00
      21    -1     0     0   501   502  0.000000000E+00  0.000000000E+00 -1.283228525E+02  1.283228525E+02  0.000000000E+00  0.00000E+00  9.000E+00
      25     1     1     2     0     0  1.403951792E+02  3.658923399E+00  2.204187213E+01  1.893014479E+02  1.250000000E+02  0.00000E+00  9.000E+00
      25     1     1     2     0     0 -1.476220039E+02  1.302139556E+01  1.916351234E+02  2.726001345E+02  1.250000000E+02  0.00000E+00  9.000E+00
       2     1     1     2   501     0  7.226824690E+00 -1.668031896E+01  1.541035309E+01  2.383147117E+01  2.384185791E-07  0.00000E+00  9.000E+00
#rwgt            1           1  0.13377227277845727                5      396006           0
</event>
<event>
      5   9999  3.79277E-02  1.18325E+02 -1.00000E+00  1.20628E-01
      21    -1     0     0   502   501  0.000000000E+00  0.000000000E+00  5.172714822E+02  5.172714822E+02  0.000000000E+00  0.00000E+00  9.000E+00
       2    -1     0     0   501     0  0.000000000E+00  0.000000000E+00 -2.510470682E+03  2.510470682E+03  0.000000000E+00  0.00000E+00  9.000E+00
      25     1     1     2     0     0  1.957103276E+02 -5.087356061E+01  4.243936796E+02  4.864418226E+02  1.250000000E+02  0.00000E+00  9.000E+00
      25     1     1     2     0     0 -8.111784401E+01  2.138935064E+01 -3.343658274E+01  1.542096430E+02  1.250000000E+02  0.00000E+00  9.000E+00
       2     1     1     2   502     0 -1.145924836E+02  2.948420998E+01 -2.384156297E+03  2.387090699E+03  3.051757812E-05  0.00000E+00  9.000E+00
#rwgt            1           1   3.1504529587455338E-002           5      396282           0
</event>
<event>
      5   9999  3.79277E-02  1.09771E+02 -1.00000E+00  1.22034E-01
      21    -1     0     0   511   501  0.000000000E+00  0.000000000E+00  6.278155609E+02  6.278155609E+02  0.000000000E+00  0.00000E+00  9.000E+00
      21    -1     0     0   501   502  0.000000000E+00  0.000000000E+00 -4.732021811E+02  4.732021811E+02  0.000000000E+00  0.00000E+00  9.000E+00
      25     1     1     2     0     0 -1.344879597E+02 -2.692561178E+02 -1.020299108E+02  3.414981273E+02  1.250000000E+02  0.00000E+00  9.000E+00
      25     1     1     2     0     0  5.419636086E+01  3.441095761E+02 -1.024542047E+02  3.840188927E+02  1.250000000E+02  0.00000E+00  9.000E+00
      21     1     1     2   511   502  8.029159886E+01 -7.485345833E+01  3.590974952E+02  3.755007219E+02  3.814697266E-06  0.00000E+00  9.000E+00
#rwgt            1           1   4.7573691411115178E-002           5      396345           0
</event>
<event>
      5   9999 -3.79277E-02  4.78538E+01 -1.00000E+00  1.40171E-01
      21    -1     0     0   502   512  0.000000000E+00  0.000000000E+00  2.985821123E+02  2.985821123E+02  0.000000000E+00  0.00000E+00  9.000E+00
      21    -1     0     0   501   502  0.000000000E+00  0.000000000E+00 -5.604884744E+02  5.604884744E+02  0.000000000E+00  0.00000E+00  9.000E+00
      25     1     1     2     0     0 -1.489872524E+02  1.254819114E+02 -3.050405942E+02  3.829068758E+02  1.250000000E+02  0.00000E+00  9.000E+00
      25     1     1     2     0     0  1.916191912E+02 -1.472191528E+02 -1.264117126E+02  2.999938574E+02  1.250000000E+02  0.00000E+00  9.000E+00
      21     1     1     2   501   512 -4.263193882E+01  2.173724131E+01  1.695459447E+02  1.761698534E+02  3.303624740E-06  0.00000E+00  9.000E+00
#rwgt            1           1 -0.22567811383090711                5      396407           0
</event>
<event>
      5   9999  3.79277E-02  1.39381E+01 -1.00000E+00  1.80441E-01
      21    -1     0     0   502   511  0.000000000E+00  0.000000000E+00  1.042221999E+03  1.042221999E+03  0.000000000E+00  0.00000E+00  9.000E+00
      21    -1     0     0   501   502  0.000000000E+00  0.000000000E+00 -3.988014476E+02  3.988014476E+02  0.000000000E+00  0.00000E+00  9.000E+00
      25     1     1     2     0     0 -7.434337177E+01  6.106497893E+02  1.868586320E+02  6.549513344E+02  1.250000000E+02  0.00000E+00  9.000E+00
      25     1     1     2     0     0  6.335134473E+01 -6.020798010E+02  4.211099529E+02  7.479786575E+02  1.250000000E+02  0.00000E+00  9.000E+00
      21     1     1     2   501   511  1.099202704E+01 -8.569988286E+00  3.545196675E+01  3.809345488E+01  4.768371582E-07  0.00000E+00  9.000E+00
#rwgt            1           1   3.2441945209281800E-002           5      396675           0
</event>
<event>
      5   9999  3.79277E-02  9.17763E+01 -1.00000E+00  1.25528E-01
      21    -1     0     0   502   512  0.000000000E+00  0.000000000E+00  4.084072121E+02  4.084072121E+02  0.000000000E+00  0.00000E+00  9.000E+00
      21    -1     0     0   501   502  0.000000000E+00  0.000000000E+00 -2.730520937E+02  2.730520937E+02  0.000000000E+00  0.00000E+00  9.000E+00
      25     1     1     2     0     0 -2.260793745E+02 -4.839375599E+01 -1.235768543E+02  2.904308491E+02  1.250000000E+02  0.00000E+00  9.000E+00
      25     1     1     2     0     0  1.366014865E+02  6.880459667E+01  2.045095194E+02  2.843293551E+02  1.250000000E+02  0.00000E+00  9.000E+00
      21     1     1     2   501   512  8.947788804E+01 -2.041084068E+01  5.442245322E+01  1.066991016E+02  1.507891493E-06  0.00000E+00  9.000E+00
#rwgt            1           1   3.5530819321501692E-002           5      397006           0
</event>
<event>
      5   9999  3.79277E-02  2.42200E+01 -1.00000E+00  1.59789E-01
      21    -1     0     0   502   511  0.000000000E+00  0.000000000E+00  9.945861007E+02  9.945861007E+02  0.000000000E+00  0.00000E+00  9.000E+00
      21    -1     0     0   501   502  0.000000000E+00  0.000000000E+00 -5.055000339E+01  5.055000339E+01  0.000000000E+00  0.00000E+00  9.000E+00
      25     1     1     2     0     0  2.393744506E+00 -2.445968583E+01  5.622440861E+02  5.764958097E+02  1.250000000E+02  0.00000E+00  9.000E+00
      25     1     1     2     0     0 -1.887153925E+01  4.221053388E+01  6.037963368E+01  1.463166577E+02  1.250000000E+02  0.00000E+00  9.000E+00
      21     1     1     2   501   511  1.647779474E+01 -1.775084804E+01  3.214123776E+02  3.223236368E+02  6.607249480E-06  0.00000E+00  9.000E+00
#rwgt            1           1   4.3937708527511013E-002           5      397068           0
</event>
<event>
      5   9999  3.79277E-02  1.07261E+02 -1.00000E+00  1.22474E-01
      21    -1     0     0   512   501  0.000000000E+00  0.000000000E+00  7.243301415E+02  7.243301415E+02  0.000000000E+00  0.00000E+00  9.000E+00
      21    -1     0     0   501   502  0.000000000E+00  0.000000000E+00 -1.971352044E+02  1.971352044E+02  0.000000000E+00  0.00000E+00  9.000E+00
      25     1     1     2     0     0  2.651300463E+00  1.926587092E+02 -3.075560516E+01  2.317224954E+02  1.250000000E+02  0.00000E+00  9.000E+00
      25     1     1     2     0     0  9.879714355E+01 -2.274883121E+02  2.920626631E+02  4.030352427E+02  1.250000000E+02  0.00000E+00  9.000E+00
      21     1     1     2   512   502 -1.014484440E+02  3.482960291E+01  2.658878792E+02  2.867076077E+02  3.814697266E-06  0.00000E+00  9.000E+00
#rwgt            1           1   3.4299923634822892E-002           5      397251           0
</event>
<event>
      5   9999  3.79277E-02  1.33478E+01 -1.00000E+00  1.82295E-01
      21    -1     0     0   502   501  0.000000000E+00  0.000000000E+00  1.348970654E+02  1.348970654E+02  0.000000000E+00  0.00000E+00  9.000E+00
      21    -1     0     0   511   502  0.000000000E+00  0.000000000E+00 -4.162023188E+02  4.162023188E+02  0.000000000E+00  0.00000E+00  9.000E+00
      25     1     1     2     0     0  4.914357779E+01 -9.476223748E+01 -3.030887985E+02  3.447938408E+02  1.250000000E+02  0.00000E+00  9.000E+00
      25     1     1     2     0     0 -4.615970565E+01  1.077722745E+02  4.705903458E+01  1.777220704E+02  1.250000000E+02  0.00000E+00  9.000E+00
      21     1     1     2   511   501 -2.983872139E+00 -1.301003701E+01 -2.527548947E+01  2.858347291E+01  3.371747881E-07  0.00000E+00  9.000E+00
#rwgt            1           1   5.4109747758498708E-002           5      397427           0
</event>
<event>
      5   9999  3.79277E-02  2.08330E+01 -1.00000E+00  1.64920E-01
      21    -1     0     0   512   501  0.000000000E+00  0.000000000E+00  2.862144703E+02  2.862144703E+02  0.000000000E+00  0.00000E+00  9.000E+00
      21    -1     0     0   501   502  0.000000000E+00  0.000000000E+00 -4.041993897E+02  4.041993897E+02  0.000000000E+00  0.00000E+00  9.000E+00
      25     1     1     2     0     0 -1.046839822E+02  4.544774460E+01  1.838639068E+02  2.499103236E+02  1.250000000E+02  0.00000E+00  9.000E+00
      25     1     1     2     0     0  1.077745147E+02 -6.605022114E+01 -3.474951267E+02  3.903278632E+02  1.250000000E+02  0.00000E+00  9.000E+00
      21     1     1     2   512   502 -3.090532505E+00  2.060247654E+01  4.564630043E+01  5.017567312E+01  0.000000000E+00  0.00000E+00  9.000E+00
#rwgt            1           1   4.8924968387135434E-002           5      397701           0
</event>
<event>
      5   9999 -3.79277E-02  5.83777E+01 -1.00000E+00  1.35343E-01
      21    -1     0     0   502   511  0.000000000E+00  0.000000000E+00  4.726956615E+02  4.726956615E+02  0.000000000E+00  0.00000E+00  9.000E+00
      21    -1     0     0   501   502  0.000000000E+00  0.000000000E+00 -5.261226774E+02  5.261226774E+02  0.000000000E+00  0.00000E+00  9.000E+00
      25     1     1     2     0     0  3.482499316E+02 -5.433768856E+01 -2.691828911E+01  3.749402533E+02  1.250000000E+02  0.00000E+00  9.000E+00
      25     1     1     2     0     0 -3.361578340E+02  1.114493145E+02 -2.107184602E+02  4.306394182E+02  1.250000000E+02  0.00000E+00  9.000E+00
      21     1     1     2   501   511 -1.209209762E+01 -5.711162592E+01  1.842097334E+02  1.932386673E+02  2.697398305E-06  0.00000E+00  9.000E+00
#rwgt            1           1 -0.11689690380711876                5      397941           0
</event>
<event>
      5   9999  3.79277E-02  1.28100E+01 -1.00000E+00  1.84094E-01
      21    -1     0     0   502   501  0.000000000E+00  0.000000000E+00  2.022373946E+02  2.022373946E+02  0.000000000E+00  0.00000E+00  9.000E+00
      21    -1     0     0   512   502  0.000000000E+00  0.000000000E+00 -2.126560489E+02  2.126560489E+02  0.000000000E+00  0.00000E+00  9.000E+00
      25     1     1     2     0     0  5.988634318E+01  1.484738702E+01 -1.434598974E+02  2.000314004E+02  1.250000000E+02  0.00000E+00  9.000E+00
      25     1     1     2     0     0 -6.881149181E+01 -5.658362265E+00  1.402565322E+02  2.001597694E+02  1.250000000E+02  0.00000E+00  9.000E+00
      21     1     1     2   512   501  8.925148631E+00 -9.189024752E+00 -7.215289105E+00  1.470227366E+01  1.685873940E-07  0.00000E+00  9.000E+00
#rwgt            1           1   5.4852672139363033E-002           5      398296           0
</event>
<event>
      5   9999  3.79277E-02  4.43849E+01 -1.00000E+00  1.42093E-01
      21    -1     0     0   502   501  0.000000000E+00  0.000000000E+00  2.938137224E+02  2.938137224E+02  0.000000000E+00  0.00000E+00  9.000E+00
      21    -1     0     0   501   511  0.000000000E+00  0.000000000E+00 -1.921907693E+02  1.921907693E+02  0.000000000E+00  0.00000E+00  9.000E+00
      25     1     1     2     0     0 -1.111806340E+02  8.932406088E+01  9.496487239E+01  2.120925463E+02  1.250000000E+02  0.00000E+00  9.000E+00
      25     1     1     2     0     0  1.183430375E+02 -1.331272563E+02  3.619549723E+01  2.205970420E+02  1.250000000E+02  0.00000E+00  9.000E+00
      21     1     1     2   502   511 -7.162403521E+00  4.380319546E+01 -2.953741646E+01  5.331490343E+01  8.920806376E-07  0.00000E+00  9.000E+00
#rwgt            1           1   2.8165371529460994E-002           5      398528           0
</event>
<event>
      5   9999  3.79277E-02  6.56436E+01 -1.00000E+00  1.32650E-01
      21    -1     0     0   502   501  0.000000000E+00  0.000000000E+00  2.336859992E+02  2.336859992E+02  0.000000000E+00  0.00000E+00  9.000E+00
      21    -1     0     0   501   512  0.000000000E+00  0.000000000E+00 -1.342273760E+03  1.342273760E+03  0.000000000E+00  0.00000E+00  9.000E+00
      25     1     1     2     0     0  2.659083100E+02  1.553325827E+02 -3.285017259E+02  4.673048517E+02  1.250000000E+02  0.00000E+00  9.000E+00
      25     1     1     2     0     0 -3.079966502E+02 -1.049574158E+02 -2.364811273E+01  3.493740530E+02  1.250000000E+02  0.00000E+00  9.000E+00
      21     1     1     2   502   512  4.208834023E+01 -5.037516693E+01 -7.564379222E+02  7.592808544E+02  1.078959322E-05  0.00000E+00  9.000E+00
#rwgt            1           1   4.9246430479101613E-002           5      398605           0
</event>
<event>
      5   9999  3.79277E-02  9.88240E+01 -1.00000E+00  1.24059E-01
      21    -1     0     0   502   501  0.000000000E+00  0.000000000E+00  1.286580376E+03  1.286580376E+03  0.000000000E+00  0.00000E+00  9.000E+00
      21    -1     0     0   501   511  0.000000000E+00  0.000000000E+00 -1.503336351E+02  1.503336351E+02  0.000000000E+00  0.00000E+00  9.000E+00
      25     1     1     2     0     0  3.000052619E+02 -1.645868880E+02  5.658188765E+02  6.729546804E+02  1.250000000E+02  0.00000E+00  9.000E+00
      25     1     1     2     0     0 -3.757896987E+02  1.011605261E+02  4.441813337E+02  6.036335038E+02  1.250000000E+02  0.00000E+00  9.000E+00
      21     1     1     2   502   511  7.578443684E+01  6.342636188E+01  1.262465304E+02  1.603258266E+02  2.336015456E-06  0.00000E+00  9.000E+00
#rwgt            1           1   5.4350830053053655E-002           5      398768           0
</event>
<event>
      5   9999  3.79277E-02  3.47861E+01 -1.00000E+00  1.48705E-01
      21    -1     0     0   502   501  0.000000000E+00  0.000000000E+00  1.646164705E+03  1.646164705E+03  0.000000000E+00  0.00000E+00  9.000E+00
       2    -1     0     0   501     0  0.000000000E+00  0.000000000E+00 -1.204452534E+02  1.204452534E+02  0.000000000E+00  0.00000E+00  9.000E+00
      25     1     1     2     0     0 -1.238767921E+01 -2.974756135E+01  1.501586991E+03  1.507125364E+03  1.250000000E+02  0.00000E+00  9.000E+00
      25     1     1     2     0     0  3.014128364E+01 -1.670291029E-01  1.084896534E+02  1.682365292E+02  1.250000000E+02  0.00000E+00  9.000E+00
       2     1     1     2   502     0 -1.775360442E+01  2.991459045E+01 -8.435719326E+01  9.124806435E+01  1.348699152E-06  0.00000E+00  9.000E+00
#rwgt            1           1   5.8979791339968779E-002           5      398899           0
</event>
<event>
      5   9999  3.79277E-02  1.74862E+02 -1.00000E+00  1.13814E-01
      21    -1     0     0   511   501  0.000000000E+00  0.000000000E+00  3.826464452E+02  3.826464452E+02  0.000000000E+00  0.00000E+00  9.000E+00
      21    -1     0     0   501   502  0.000000000E+00  0.000000000E+00 -6.275792044E+02  6.275792044E+02  0.000000000E+00  0.00000E+00  9.000E+00
      25     1     1     2     0     0 -5.168886220E+01 -2.948960117E+01 -7.150159233E+01  1.558167281E+02  1.250000000E+02  0.00000E+00  9.000E+00
      25     1     1     2     0     0  1.813516003E+01  2.011025289E+02 -4.605850448E+02  5.182033333E+02  1.250000000E+02  0.00000E+00  9.000E+00
      21     1     1     2   511   502  3.355370217E+01 -1.716129278E+02  2.871538780E+02  3.362055882E+02  0.000000000E+00  0.00000E+00  9.000E+00
#rwgt            2          11   4.2235506803987360E-003           5      399060           0
</event>
<event>
      5   9999  3.79277E-02  2.67974E+01 -1.00000E+00  1.56525E-01
      21    -1     0     0   502   501  0.000000000E+00  0.000000000E+00  6.261585122E+02  6.261585122E+02  0.000000000E+00  0.00000E+00  9.000E+00
      21    -1     0     0   512   502  0.000000000E+00  0.000000000E+00 -3.242987277E+02  3.242987277E+02  0.000000000E+00  0.00000E+00  9.000E+00
      25     1     1     2     0     0  7.897326862E+01 -1.701190355E+02  2.174096541E+02  3.131600567E+02  1.250000000E+02  0.00000E+00  9.000E+00
      25     1     1     2     0     0 -8.705758659E+01  1.956679367E+02  3.174167379E+02  4.027944269E+02  1.250000000E+02  0.00000E+00  9.000E+00
      21     1     1     2   512   501  8.084317974E+00 -2.554890117E+01 -2.329666075E+02  2.345027564E+02  2.697398305E-06  0.00000E+00  9.000E+00
#rwgt            1           1   1.6965501858668048E-003           5      399080           0
</event>
<event>
      5   9999  3.79277E-02  1.42519E+01 -1.00000E+00  1.79503E-01
      21    -1     0     0   511   501  0.000000000E+00  0.000000000E+00  2.084931733E+01  2.084931733E+01  0.000000000E+00  0.00000E+00  9.000E+00
      21    -1     0     0   501   502  0.000000000E+00  0.000000000E+00 -1.725136405E+03  1.725136405E+03  0.000000000E+00  0.00000E+00  9.000E+00
      25     1     1     2     0     0 -8.865128104E+01  1.037535427E+02 -7.229381937E+02  7.462496092E+02  1.250000000E+02  0.00000E+00  9.000E+00
      25     1     1     2     0     0  7.922327761E+01 -9.306578978E+01 -9.364839424E+02  9.526619250E+02  1.250000000E+02  0.00000E+00  9.000E+00
      21     1     1     2   511   502  9.428003430E+00 -1.068775296E+01 -4.486495122E+01  4.707418783E+01  9.536743164E-07  0.00000E+00  9.000E+00
#rwgt            1           1   3.4491247488302561E-002           5      399289           0
</event>
<event>
      5   9999  3.79277E-02  1.09793E+01 -1.00000E+00  1.91181E-01
      21    -1     0     0   502   501  0.000000000E+00  0.000000000E+00  1.823676913E+02  1.823676913E+02  0.000000000E+00  0.00000E+00  9.000E+00
      21    -1     0     0   512   502  0.000000000E+00  0.000000000E+00 -3.844134860E+02  3.844134860E+02  0.000000000E+00  0.00000E+00  9.000E+00
      25     1     1     2     0     0 -2.004579329E+02 -6.798891193E+01 -1.004381953E+02  2.655535842E+02  1.250000000E+02  0.00000E+00  9.000E+00
      25     1     1     2     0     0  2.113876758E+02  6.694732551E+01 -6.458022952E+01  2.626067400E+02  1.250000000E+02  0.00000E+00  9.000E+00
      21     1     1     2   512   501 -1.092974290E+01  1.041586414E+00 -3.702736980E+01  3.862085313E+01  4.768371582E-07  0.00000E+00  9.000E+00
#rwgt            1           1   3.3276298485753725E-002           5      399561           0
</event>
<event>
      5   9999  3.79277E-02  2.12164E+02 -1.00000E+00  1.10723E-01
      21    -1     0     0   502   501  0.000000000E+00  0.000000000E+00  2.563198206E+02  2.563198206E+02  0.000000000E+00  0.00000E+00  9.000E+00
      21    -1     0     0   501   511  0.000000000E+00  0.000000000E+00 -1.485278137E+03  1.485278137E+03  0.000000000E+00  0.00000E+00  9.000E+00
      25     1     1     2     0     0 -2.700534199E+02  4.824246931E+00 -8.625586585E+01  3.098664185E+02  1.250000000E+02  0.00000E+00  9.000E+00
      25     1     1     2     0     0  9.366379485E+01  1.130742363E+02  6.656254860E+01  2.039957408E+02  1.250000000E+02  0.00000E+00  9.000E+00
      21     1     1     2   502   511  1.763896250E+02 -1.178984832E+02 -1.209264999E+03  1.227735798E+03  1.525878906E-05  0.00000E+00  9.000E+00
#rwgt            1           1   4.1280497095708982E-002           5      399915           0
</event>
<event>
      5   9999 -3.79277E-02  9.48487E+01 -1.00000E+00  1.24870E-01
      21    -1     0     0   512   501  0.000000000E+00  0.000000000E+00  3.101442107E+02  3.101442107E+02  0.000000000E+00  0.00000E+00  9.000E+00
      21    -1     0     0   501   502  0.000000000E+00  0.000000000E+00 -7.572828341E+02  7.572828341E+02  0.000000000E+00  0.00000E+00  9.000E+00
      25     1     1     2     0     0 -3.501342630E+02 -1.689101833E+02 -3.006048167E+02  5.070630217E+02  1.250000000E+02  0.00000E+00  9.000E+00
      25     1     1     2     0     0  4.148579061E+02  9.957677518E+01 -1.049231306E+02  4.567893166E+02  1.250000000E+02  0.00000E+00  9.000E+00
      21     1     1     2   512   502 -6.472364309E+01  6.933340813E+01 -4.161067611E+01  1.035747065E+02  8.259061849E-07  0.00000E+00  9.000E+00
#rwgt            1           1  -6.5242999312077554E-002           5      399943           0
</event>
<event>
      5   9999  3.79277E-02  1.41105E+01 -1.00000E+00  1.79922E-01
      21    -1     0     0   502   501  0.000000000E+00  0.000000000E+00  3.439683359E+01  3.439683359E+01  0.000000000E+00  0.00000E+00  9.000E+00
      21    -1     0     0   501   511  0.000000000E+00  0.000000000E+00 -1.112309736E+03  1.112309736E+03  0.000000000E+00  0.00000E+00  9.000E+00
      25     1     1     2     0     0  1.119226814E+02 -3.150751311E+01 -3.039486230E+02  3.486103490E+02  1.250000000E+02  0.00000E+00  9.000E+00
      25     1     1     2     0     0 -1.095750652E+02  4.542132895E+01 -6.204728810E+02  6.439575980E+02  1.250000000E+02  0.00000E+00  9.000E+00
      21     1     1     2   502   511 -2.347616209E+00 -1.391381584E+01 -1.534913987E+02  1.541386228E+02  1.907348633E-06  0.00000E+00  9.000E+00
#rwgt            1           1   4.5169209545859082E-002           5      400053           0
</event>
<event>
      5   9999  3.79277E-02  1.14053E+01 -1.00000E+00  1.89379E-01
      21    -1     0     0   502   501  0.000000000E+00  0.000000000E+00  4.702559404E+02  4.702559404E+02  0.000000000E+00  0.00000E+00  9.000E+00
      21    -1     0     0   501   512  0.000000000E+00  0.000000000E+00 -2.353281102E+02  2.353281102E+02  0.000000000E+00  0.00000E+00  9.000E+00
      25     1     1     2     0     0  1.838364593E+02  8.957192302E+01 -1.190280280E+02  2.676035213E+02  1.250000000E+02  0.00000E+00  9.000E+00
      25     1     1     2     0     0 -1.742602589E+02 -9.576681357E+01  3.558981179E+02  4.264110584E+02  1.250000000E+02  0.00000E+00  9.000E+00
      21     1     1     2   502   512 -9.576200343E+00  6.194890550E+00 -1.942259689E+00  1.156947080E+01  2.904771073E-07  0.00000E+00  9.000E+00
#rwgt            1           1   4.0502785218337785E-002           5      400368           0
</event>
<event>
      5   9999  3.79277E-02  2.82420E+01 -1.00000E+00  1.54884E-01
      21    -1     0     0   502   501  0.000000000E+00  0.000000000E+00  7.783505860E+01  7.783505860E+01  0.000000000E+00  0.00000E+00  9.000E+00
       2    -1     0     0   501     0  0.000000000E+00  0.000000000E+00 -2.254734142E+03  2.254734142E+03  0.000000000E+00  0.00000E+00  9.000E+00
      25     1     1     2     0     0  7.311242421E+01 -5.708988140E+01 -4.057969051E+02  4.346272073E+02  1.250000000E+02  0.00000E+00  9.000E+00
      25     1     1     2     0     0 -9.853650678E+01  4.479243297E+01 -4.466911646E+01  1.712779472E+02  1.250000000E+02  0.00000E+00  9.000E+00
       2     1     1     2   502     0  2.542408257E+01  1.229744843E+01 -1.726433062E+03  1.726664046E+03  3.051757812E-05  0.00000E+00  9.000E+00
#rwgt            1           1   2.2036893286550712E-002           5      400682           0
</event>
<event>
      5   9999  3.79277E-02  8.92786E+01 -1.00000E+00  1.26084E-01
       3    -1     0     0   502     0  0.000000000E+00  0.000000000E+00  3.888042874E+02  3.888042874E+02  0.000000000E+00  0.00000E+00  9.000E+00
      21    -1     0     0   501   502  0.000000000E+00  0.000000000E+00 -1.396841753E+02  1.396841753E+02  0.000000000E+00  0.00000E+00  9.000E+00
      25     1     1     2     0     0 -2.197428506E+01  3.613328289E+01 -4.015643702E+01  1.379348497E+02  1.250000000E+02  0.00000E+00  9.000E+00
      25     1     1     2     0     0  1.108135712E+02 -4.497908202E+01  1.851654430E+02  2.534048276E+02  1.250000000E+02  0.00000E+00  9.000E+00
       3     1     1     2   501     0 -8.883928610E+01  8.845799131E+00  1.041111061E+02  1.371487854E+02  1.348699152E-06  0.00000E+00  9.000E+00
#rwgt            1           1   5.1414827105786730E-002           5      400881           0
</event>
<event>
      5   9999  3.79277E-02  5.81681E+01 -1.00000E+00  1.35427E-01
      21    -1     0     0   502   501  0.000000000E+00  0.000000000E+00  5.963514868E+02  5.963514868E+02  0.000000000E+00  0.00000E+00  9.000E+00
      21    -1     0     0   511   502  0.000000000E+00  0.000000000E+00 -2.469314072E+02  2.469314072E+02  0.000000000E+00  0.00000E+00  9.000E+00
      25     1     1     2     0     0  9.375628358E+01  2.634518787E+02  3.293716360E+02  4.497864024E+02  1.250000000E+02  0.00000E+00  9.000E+00
      25     1     1     2     0     0 -9.681761165E+01 -2.053643539E+02  1.138835056E+02  2.830947202E+02  1.250000000E+02  0.00000E+00  9.000E+00
      21     1     1     2   511   501  3.061328071E+00 -5.808752486E+01 -9.383506198E+01  1.104017714E+02  1.907348633E-06  0.00000E+00  9.000E+00
#rwgt            1           1   6.5768582309443435E-002           5      400931           0
</event>
<event>
      5   9999  3.79277E-02  4.61780E+01 -1.00000E+00  1.41075E-01
       1    -1     0     0   502     0  0.000000000E+00  0.000000000E+00  2.505681771E+03  2.505681771E+03  0.000000000E+00  0.00000E+00  9.000E+00
      21    -1     0     0   501   502  0.000000000E+00  0.000000000E+00 -2.279322480E+01  2.279322480E+01  0.000000000E+00  0.00000E+00  9.000E+00
      25     1     1     2     0     0  1.768133428E+01 -1.798539631E+02  9.236869744E+02  9.494644303E+02  1.250000000E+02  0.00000E+00  9.000E+00
      25     1     1     2     0     0 -5.316595525E+01  1.503032064E+02  1.226353319E+03  1.242974310E+03  1.250000000E+02  0.00000E+00  9.000E+00
       1     1     1     2   501     0  3.548462097E+01  2.955075677E+01  3.328482525E+02  3.360362551E+02  0.000000000E+00  0.00000E+00  9.000E+00
#rwgt            1           1   8.4375664622760430E-002           5      401003           0
</event>
<event>
      5   9999  3.79277E-02  2.92084E+01 -1.00000E+00  1.53851E-01
      21    -1     0     0   502   501  0.000000000E+00  0.000000000E+00  1.484483825E+02  1.484483825E+02  0.000000000E+00  0.00000E+00  9.000E+00
      21    -1     0     0   501   511  0.000000000E+00  0.000000000E+00 -4.592800841E+02  4.592800841E+02  0.000000000E+00  0.00000E+00  9.000E+00
      25     1     1     2     0     0  1.449086703E+02 -1.422544943E+02 -2.588845450E+02  3.519674297E+02  1.250000000E+02  0.00000E+00  9.000E+00
      25     1     1     2     0     0 -1.200487412E+02  1.269209765E+02 -2.543750087E+01  2.163162060E+02  1.250000000E+02  0.00000E+00  9.000E+00
      21     1     1     2   502   511 -2.485992910E+01  1.533351782E+01 -2.650965563E+01  3.944483091E+01  4.768371582E-07  0.00000E+00  9.000E+00
#rwgt            1           1  0.16030829679539485                5      401137           0
</event>
<event>
      5   9999  3.79277E-02  1.32844E+02 -1.00000E+00  1.18523E-01
      21    -1     0     0   502   501  0.000000000E+00  0.000000000E+00  4.663929469E+02  4.663929469E+02  0.000000000E+00  0.00000E+00  9.000E+00
       2    -1     0     0   501     0  0.000000000E+00  0.000000000E+00 -1.839832514E+03  1.839832514E+03  0.000000000E+00  0.00000E+00  9.000E+00
      25     1     1     2     0     0 -3.082690790E+02  9.355805727E+00  2.258393469E+02  4.021762882E+02  1.250000000E+02  0.00000E+00  9.000E+00
      25     1     1     2     0     0  3.262140147E+02  1.222707622E+02 -7.961324695E+01  3.785881559E+02  1.250000000E+02  0.00000E+00  9.000E+00
       2     1     1     2   502     0 -1.794493570E+01 -1.316265679E+02 -1.519665667E+03  1.525461017E+03  2.157918644E-05  0.00000E+00  9.000E+00
#rwgt            1           1   7.5255100216496729E-002           5      401375           0
</event>
<event>
      5   9999  3.79277E-02  1.07996E+02 -1.00000E+00  1.22344E-01
      21    -1     0     0   502   511  0.000000000E+00  0.000000000E+00  3.654666807E+02  3.654666807E+02  0.000000000E+00  0.00000E+00  9.000E+00
      21    -1     0     0   501   502  0.000000000E+00  0.000000000E+00 -1.552164926E+02  1.552164926E+02  0.000000000E+00  0.00000E+00  9.000E+00
      25     1     1     2     0     0 -7.757878670E+00  7.433723670E+01  9.782002806E+01  1.754422051E+02  1.250000000E+02  0.00000E+00  9.000E+00
      25     1     1     2     0     0  8.360638989E+01 -1.512151965E+02  4.511333677E+01  2.179822865E+02  1.250000000E+02  0.00000E+00  9.000E+00
      21     1     1     2   501   511 -7.584851122E+01  7.687795981E+01  6.731682325E+01  1.272586816E+02  9.536743164E-07  0.00000E+00  9.000E+00
#rwgt            1           1   2.7793040860754709E-002           5      401497           0
</event>
<event>
      5   9999  3.79277E-02  4.51108E+01 -1.00000E+00  1.41674E-01
      21    -1     0     0   502   512  0.000000000E+00  0.000000000E+00  8.794236068E+02  8.794236068E+02  0.000000000E+00  0.00000E+00  9.000E+00
      21    -1     0     0   501   502  0.000000000E+00  0.000000000E+00 -2.592083126E+02  2.592083126E+02  0.000000000E+00  0.00000E+00  9.000E+00
      25     1     1     2     0     0 -1.118279778E+02  1.382894638E+02  1.511115954E+02  2.647436244E+02  1.250000000E+02  0.00000E+00  9.000E+00
      25     1     1     2     0     0  1.408477451E+02 -1.037520048E+02 -1.442278309E+02  2.589000444E+02  1.250000000E+02  0.00000E+00  9.000E+00
      21     1     1     2   501   512 -2.901976724E+01 -3.453745898E+01  6.133315298E+02  6.149882506E+02  0.000000000E+00  0.00000E+00  9.000E+00
#rwgt            1           1   2.9258817636012801E-002           5      401567           0
</event>
<event>
      5   9999  3.79277E-02  1.73940E+02 -1.00000E+00  1.13901E-01
      21    -1     0     0   502   511  0.000000000E+00  0.000000000E+00  1.018258956E+03  1.018258956E+03  0.000000000E+00  0.00000E+00  9.000E+00
      21    -1     0     0   501   502  0.000000000E+00  0.000000000E+00 -1.859377468E+02  1.859377468E+02  0.000000000E+00  0.00000E+00  9.000E+00
      25     1     1     2     0     0  1.414713837E+02  3.255081802E+02  1.976921332E+02  4.250610630E+02  1.250000000E+02  0.00000E+00  9.000E+00
      25     1     1     2     0     0 -1.703564267E+02 -1.539828698E+02  2.738617201E+02  3.786255117E+02  1.250000000E+02  0.00000E+00  9.000E+00
      21     1     1     2   501   511  2.888504301E+01 -1.715253103E+02  3.607673562E+02  4.005101286E+02  5.394796609E-06  0.00000E+00  9.000E+00
#rwgt            1           1   3.9629871055763904E-002           5      401685           0
</event>
<event>
      5   9999  3.79277E-02  5.34032E+01 -1.00000E+00  1.37463E-01
      21    -1     0     0   502   501  0.000000000E+00  0.000000000E+00  1.793946355E+02  1.793946355E+02  0.000000000E+00  0.00000E+00  9.000E+00
      -4    -1     0     0     0   502  0.000000000E+00  0.000000000E+00 -2.558854059E+02  2.558854059E+02  0.000000000E+00  0.00000E+00  9.000E+00
      25     1     1     2     0     0  7.929407772E+00  1.361881161E+02 -1.249256234E+02  2.232520770E+02  1.250000000E+02  0.00000E+00  9.000E+00
      25     1     1     2     0     0 -2.104907584E+01 -8.442154228E+01  4.354084218E+01  1.584009638E+02  1.250000000E+02  0.00000E+00  9.000E+00
      -4     1     1     2     0   501  1.311966806E+01 -5.176657381E+01  4.894010908E+00  5.362700064E+01  8.860867469E-07  0.00000E+00  9.000E+00
#rwgt            1           1   4.8761223354567590E-002           5      401729           0
</event>
<event>
      5   9999  3.79277E-02  3.58471E+01 -1.00000E+00  1.47856E-01
      21    -1     0     0   502   501  0.000000000E+00  0.000000000E+00  3.078850262E+02  3.078850262E+02  0.000000000E+00  0.00000E+00  9.000E+00
      21    -1     0     0   511   502  0.000000000E+00  0.000000000E+00 -1.231194736E+02  1.231194736E+02  0.000000000E+00  0.00000E+00  9.000E+00
      25     1     1     2     0     0 -1.777045045E+00 -5.759645275E+01  2.119245701E+02  2.527004802E+02  1.250000000E+02  0.00000E+00  9.000E+00
      25     1     1     2     0     0 -2.657704669E+01  3.566330921E+01 -4.249190235E+01  1.393153717E+02  1.250000000E+02  0.00000E+00  9.000E+00
      21     1     1     2   511   501  2.835409173E+01  2.193314354E+01  1.533288491E+01  3.898864787E+01  5.591411304E-07  0.00000E+00  9.000E+00
#rwgt            1           1   4.7662627401578068E-002           5      401833           0
</event>
<event>
      5   9999  3.79277E-02  1.16009E+02 -1.00000E+00  1.20995E-01
      -1    -1     0     0     0   501  0.000000000E+00  0.000000000E+00  7.592246714E+02  7.592246714E+02  0.000000000E+00  0.00000E+00  9.000E+00
      21    -1     0     0   501   502  0.000000000E+00  0.000000000E+00 -1.483539799E+02  1.483539799E+02  0.000000000E+00  0.00000E+00  9.000E+00
      25     1     1     2     0     0  8.303469481E+01 -1.745002155E+02  4.630268971E+01  2.347637638E+02  1.250000000E+02  0.00000E+00  9.000E+00
      25     1     1     2     0     0  3.058262896E+01  1.510663179E+02  1.692277089E+02  2.608051898E+02  1.250000000E+02  0.00000E+00  9.000E+00
      -1     1     1     2     0   502 -1.136173238E+02  2.343389759E+01  3.953402928E+02  4.120096977E+02  7.629394531E-06  0.00000E+00  9.000E+00
#rwgt            1           1  0.10518297878980166                5      402043           0
</event>
<event>
      5   9999  3.79277E-02  4.54873E+01 -1.00000E+00  1.41461E-01
      21    -1     0     0   502   501  0.000000000E+00  0.000000000E+00  1.052282224E+02  1.052282224E+02  0.000000000E+00  0.00000E+00  9.000E+00
      21    -1     0     0   511   502  0.000000000E+00  0.000000000E+00 -6.440537346E+02  6.440537346E+02  0.000000000E+00  0.00000E+00  9.000E+00
      25     1     1     2     0     0  1.621833709E+02 -3.557139582E+01 -2.709517085E+02  3.414800117E+02  1.250000000E+02  0.00000E+00  9.000E+00
      25     1     1     2     0     0 -2.001195311E+02  6.066997974E+01 -1.620016242E+02  2.925716996E+02  1.250000000E+02  0.00000E+00  9.000E+00
      21     1     1     2   511   501  3.793616012E+01 -2.509858392E+01 -1.058721794E+02  1.152302457E+02  1.907348633E-06  0.00000E+00  9.000E+00
#rwgt            1           1   3.3786823898906825E-002           5      402105           0
</event>
<event>
      5   9999  3.79277E-02  4.76108E+01 -1.00000E+00  1.40300E-01
      21    -1     0     0   502   501  0.000000000E+00  0.000000000E+00  2.843710218E+02  2.843710218E+02  0.000000000E+00  0.00000E+00  9.000E+00
      21    -1     0     0   512   502  0.000000000E+00  0.000000000E+00 -2.514669557E+02  2.514669557E+02  0.000000000E+00  0.00000E+00  9.000E+00
      25     1     1     2     0     0  1.078217053E+02 -1.428603919E+02  1.093703130E+02  2.441750951E+02  1.250000000E+02  0.00000E+00  9.000E+00
      25     1     1     2     0     0 -6.033730653E+01  1.393934253E+02  5.591984515E+00  1.967927536E+02  1.250000000E+02  0.00000E+00  9.000E+00
      21     1     1     2   512   501 -4.748439877E+01  3.466966605E+00 -8.205823147E+01  9.487012878E+01  9.536743164E-07  0.00000E+00  9.000E+00
#rwgt            1           1   4.5426833770767193E-002           5      402208           0
</event>
<event>
      5   9999  3.79277E-02  5.04777E+01 -1.00000E+00  1.38840E-01
      21    -1     0     0   502   501  0.000000000E+00  0.000000000E+00  4.782953803E+02  4.782953803E+02  0.000000000E+00  0.00000E+00  9.000E+00
      21    -1     0     0   511   502  0.000000000E+00  0.000000000E+00 -5.194219507E+02  5.194219507E+02  0.000000000E+00  0.00000E+00  9.000E+00
      25     1     1     2     0     0  3.066205130E+02 -1.031921845E+02 -2.266067924E+02  4.142950691E+02  1.250000000E+02  0.00000E+00  9.000E+00
      25     1     1     2     0     0 -3.366299288E+02  1.437807307E+02  2.791522495E+02  4.770152890E+02  1.250000000E+02  0.00000E+00  9.000E+00
      21     1     1     2   511   501  3.000941582E+01 -4.058854617E+01 -9.367202762E+01  1.064069729E+02  1.348699152E-06  0.00000E+00  9.000E+00
#rwgt            1           1   2.1174683639733290E-002           5      402403           0
</event>
<event>
      5   9999  3.79277E-02  5.09186E+01 -1.00000E+00  1.38626E-01
      21    -1     0     0   502   512  0.000000000E+00  0.000000000E+00  2.831503827E+02  2.831503827E+02  0.000000000E+00  0.00000E+00  9.000E+00
      21    -1     0     0   501   502  0.000000000E+00  0.000000000E+00 -2.164843407E+02  2.164843407E+02  0.000000000E+00  0.00000E+00  9.000E+00
      25     1     1     2     0     0  6.537441829E+01 -1.061315078E+01 -1.441249776E+02  2.019491587E+02  1.250000000E+02  0.00000E+00  9.000E+00
      25     1     1     2     0     0 -4.314481310E+01  5.642308270E+01  1.988594465E+02  2.453876905E+02  1.250000000E+02  0.00000E+00  9.000E+00
      21     1     1     2   501   512 -2.222960518E+01 -4.580993191E+01  1.193157312E+01  5.229787420E+01  3.769728732E-07  0.00000E+00  9.000E+00
#rwgt            1           1   2.7652181580796541E-002           5      402577           0
</event>
<event>
      5   9999  3.79277E-02  4.47439E+01 -1.00000E+00  1.41885E-01
      21    -1     0     0   502   501  0.000000000E+00  0.000000000E+00  1.884535544E+02  1.884535544E+02  0.000000000E+00  0.00000E+00  9.000E+00
      21    -1     0     0   511   502  0.000000000E+00  0.000000000E+00 -1.568489329E+02  1.568489329E+02  0.000000000E+00  0.00000E+00  9.000E+00
      25     1     1     2     0     0 -3.333315105E+01 -2.378050105E+01 -2.506492442E+01  1.339024332E+02  1.250000000E+02  0.00000E+00  9.000E+00
      25     1     1     2     0     0  6.896407148E+00  5.987917511E+01  8.078125071E+01  1.605729943E+02  1.250000000E+02  0.00000E+00  9.000E+00
      21     1     1     2   511   501  2.643674391E+01 -3.609867407E+01 -2.411170475E+01  5.082705976E+01  5.840038640E-07  0.00000E+00  9.000E+00
#rwgt            1           1   5.4808804171965146E-002           5      402655           0
</event>
<event>
      5   9999  3.79277E-02  3.87403E+02 -1.00000E+00  1.02105E-01
      21    -1     0     0   512   501  0.000000000E+00  0.000000000E+00  9.297638130E+02  9.297638130E+02  0.000000000E+00  0.00000E+00  9.000E+00
      21    -1     0     0   501   502  0.000000000E+00  0.000000000E+00 -4.928275690E+02  4.928275690E+02  0.000000000E+00  0.00000E+00  9.000E+00
      25     1     1     2     0     0  6.409294712E+01  1.773820234E+02 -2.430858824E+02  3.320964233E+02  1.250000000E+02  0.00000E+00  9.000E+00
      25     1     1     2     0     0  3.138247605E+02 -9.218082477E+01  5.399317390E+01  3.542930250E+02  1.250000000E+02  0.00000E+00  9.000E+00
      21     1     1     2   512   502 -3.779177076E+02 -8.520119868E+01  6.260289525E+02  7.362019338E+02  1.078959322E-05  0.00000E+00  9.000E+00
#rwgt            1           1   3.8456327203657652E-002           5      402755           0
</event>
<event>
      5   9999  3.79277E-02  7.22234E+01 -1.00000E+00  1.30537E-01
      21    -1     0     0   511   501  0.000000000E+00  0.000000000E+00  1.291736367E+02  1.291736367E+02  0.000000000E+00  0.00000E+00  9.000E+00
      21    -1     0     0   501   502  0.000000000E+00  0.000000000E+00 -1.108186803E+03  1.108186803E+03  0.000000000E+00  0.00000E+00  9.000E+00
      25     1     1     2     0     0 -1.224447072E+02  9.962167404E+01 -5.037702404E+02  5.425187917E+02  1.250000000E+02  0.00000E+00  9.000E+00
      25     1     1     2     0     0  5.303903120E+01 -1.195986207E+02 -5.570577295E+02  5.857092136E+02  1.250000000E+02  0.00000E+00  9.000E+00
      21     1     1     2   511   502  6.940567599E+01  1.997694668E+01  8.181480325E+01  1.091324346E+02  0.000000000E+00  0.00000E+00  9.000E+00
#rwgt            1           1   5.6133598624623117E-002           5      402804           0
</event>
<event>
      5   9999  3.79277E-02  4.49365E+01 -1.00000E+00  1.41774E-01
      21    -1     0     0   502   512  0.000000000E+00  0.000000000E+00  4.068313773E+02  4.068313773E+02  0.000000000E+00  0.00000E+00  9.000E+00
      21    -1     0     0   501   502  0.000000000E+00  0.000000000E+00 -1.795127826E+02  1.795127826E+02  0.000000000E+00  0.00000E+00  9.000E+00
      25     1     1     2     0     0 -1.978559522E+02 -9.330432162E+01  1.294756305E+02  2.832695062E+02  1.250000000E+02  0.00000E+00  9.000E+00
      25     1     1     2     0     0  1.574686340E+02  1.130058476E+02  4.728059470E+01  2.354297070E+02  1.250000000E+02  0.00000E+00  9.000E+00
      21     1     1     2   501   512  4.038731826E+01 -1.970152602E+01  5.056236955E+01  6.764494673E+01  1.168007728E-06  0.00000E+00  9.000E+00
#rwgt            1           1   3.5181695542817866E-002           5      402880           0
</event>
<event>
      5   9999  3.79277E-02  2.99595E+01 -1.00000E+00  1.53081E-01
      21    -1     0     0   511   501  0.000000000E+00  0.000000000E+00  7.225615725E+02  7.225615725E+02  0.000000000E+00  0.00000E+00  9.000E+00
      21    -1     0     0   501   502  0.000000000E+00  0.000000000E+00 -1.873467460E+02  1.873467460E+02  0.000000000E+00  0.00000E+00  9.000E+00
      25     1     1     2     0     0  2.588190266E+02  1.782504189E+02  2.495712852E+02  4.203228840E+02  1.250000000E+02  0.00000E+00  9.000E+00
      25     1     1     2     0     0 -2.695862023E+02 -2.062081962E+02  2.369020912E+02  4.323726882E+02  1.250000000E+02  0.00000E+00  9.000E+00
      21     1     1     2   511   502  1.076717570E+01  2.795777727E+01  4.874145006E+01  5.721274628E+01  6.743495762E-07  0.00000E+00  9.000E+00
#rwgt            2          11   1.0753596760733161E-002           5      403102           0
</event>
<event>
      5   9999  3.79277E-02  3.44762E+01 -1.00000E+00  1.48960E-01
      21    -1     0     0   502   501  0.000000000E+00  0.000000000E+00  1.751672484E+02  1.751672484E+02  0.000000000E+00  0.00000E+00  9.000E+00
      21    -1     0     0   501   512  0.000000000E+00  0.000000000E+00 -2.797788172E+02  2.797788172E+02  0.000000000E+00  0.00000E+00  9.000E+00
      25     1     1     2     0     0  8.990920995E+01  3.039083836E+01  7.997776127E+01  1.761496846E+02  1.250000000E+02  0.00000E+00  9.000E+00
      25     1     1     2     0     0 -1.204278507E+02 -1.435269385E+01 -1.594064353E+02  2.361022632E+02  1.250000000E+02  0.00000E+00  9.000E+00
      21     1     1     2   502   512  3.051864079E+01 -1.603814451E+01 -2.518289475E+01  4.269411789E+01  3.371747881E-07  0.00000E+00  9.000E+00
#rwgt            1           1   3.8935660889645077E-002           5      403212           0
</event>
<event>
      5   9999  3.79277E-02  3.47170E+01 -1.00000E+00  1.48762E-01
       2    -1     0     0   502     0  0.000000000E+00  0.000000000E+00  1.284992520E+03  1.284992520E+03  0.000000000E+00  0.00000E+00  9.000E+00
      21    -1     0     0   501   502  0.000000000E+00  0.000000000E+00 -1.565846574E+02  1.565846574E+02  0.000000000E+00  0.00000E+00  9.000E+00
      25     1     1     2     0     0 -2.965527572E+01 -8.390075731E+01 -7.336422289E+01  1.700766935E+02  1.250000000E+02  0.00000E+00  9.000E+00
      25     1     1     2     0     0  1.445297998E+01  1.151122697E+02  1.757578106E+02  2.448990226E+02  1.250000000E+02  0.00000E+00  9.000E+00
       2     1     1     2   501     0  1.520229574E+01 -3.121151239E+01  1.026014275E+03  1.026601461E+03  0.000000000E+00  0.00000E+00  9.000E+00
#rwgt            1           1   3.9071521295827652E-002           5      403465           0
</event>
<event>
      5   9999  3.79277E-02  1.27181E+02 -1.00000E+00  1.19307E-01
      21    -1     0     0   502   511  0.000000000E+00  0.000000000E+00  1.504334896E+03  1.504334896E+03  0.000000000E+00  0.00000E+00  9.000E+00
      21    -1     0     0   501   502  0.000000000E+00  0.000000000E+00 -8.703860916E+01  8.703860916E+01  0.000000000E+00  0.00000E+00  9.000E+00
      25     1     1     2     0     0 -7.296701264E+01 -3.130664336E+02  7.899817378E+02  8.619924146E+02  1.250000000E+02  0.00000E+00  9.000E+00
      25     1     1     2     0     0  5.139725005E+00  2.054816711E+02  3.550437515E+02  4.288708424E+02  1.250000000E+02  0.00000E+00  9.000E+00
      21     1     1     2   501   511  6.782728763E+01  1.075847625E+02  2.722707977E+02  3.005102483E+02  5.394796609E-06  0.00000E+00  9.000E+00
#rwgt            2          11   2.4329684847386969E-003           5      403588           0
</event>
<event>
      5   9999  3.79277E-02  5.06693E+01 -1.00000E+00  1.38747E-01
      21    -1     0     0   502   501  0.000000000E+00  0.000000000E+00  1.370977620E+02  1.370977620E+02  0.000000000E+00  0.00000E+00  9.000E+00
      21    -1     0     0   501   512  0.000000000E+00  0.000000000E+00 -9.563475671E+02  9.563475671E+02  0.000000000E+00  0.00000E+00  9.000E+00
      25     1     1     2     0     0  1.962754164E+01 -8.622410123E+01  6.301219198E+01  1.655758810E+02  1.250000000E+02  0.00000E+00  9.000E+00
      25     1     1     2     0     0  5.886052088E+00  4.244705668E+01 -1.774897448E+02  2.212781231E+02  1.250000000E+02  0.00000E+00  9.000E+00
      21     1     1     2   502   512 -2.551359373E+01  4.377704455E+01 -7.047722523E+02  7.065913251E+02  1.078959322E-05  0.00000E+00  9.000E+00
#rwgt            1           1   4.0906946543127085E-002           5      403683           0
</event>
<event>
      5   9999  3.79277E-02  5.73671E+01 -1.00000E+00  1.35753E-01
      21    -1     0     0   502   511  0.000000000E+00  0.000000000E+00  5.255195701E+02  5.255195701E+02  0.000000000E+00  0.00000E+00  9.000E+00
      21    -1     0     0   501   502  0.000000000E+00  0.000000000E+00 -4.131849052E+02  4.131849052E+02  0.000000000E+00  0.00000E+00  9.000E+00
      25     1     1     2     0     0 -7.264010192E+01 -2.181876616E+02  3.238925751E+02  4.164298744E+02  1.250000000E+02  0.00000E+00  9.000E+00
      25     1     1     2     0     0  1.220609836E+02  1.890575783E+02 -3.132890640E+02  4.054832786E+02  1.250000000E+02  0.00000E+00  9.000E+00
      21     1     1     2   501   511 -4.942088166E+01  2.913008334E+01  1.017311538E+02  1.167913223E+02  1.348699152E-06  0.00000E+00  9.000E+00
#rwgt            1           1  0.11512090243007765                5      403803           0
</event>
<event>
      5   9999  3.79277E-02  2.38083E+01 -1.00000E+00  1.60356E-01
      21    -1     0     0   512   501  0.000000000E+00  0.000000000E+00  2.441259807E+02  2.441259807E+02  0.000000000E+00  0.00000E+00  9.000E+00
      21    -1     0     0   501   502  0.000000000E+00  0.000000000E+00 -3.643080657E+02  3.643080657E+02  0.000000000E+00  0.00000E+00  9.000E+00
      25     1     1     2     0     0  1.282579483E+02  1.461828824E+00 -2.652177554E+02  3.200276488E+02  1.250000000E+02  0.00000E+00  9.000E+00
      25     1     1     2     0     0 -1.143544229E+02 -2.078868271E+01  3.297334024E+01  1.738428731E+02  1.250000000E+02  0.00000E+00  9.000E+00
      21     1     1     2   512   502 -1.390352537E+01  1.932685388E+01  1.120623301E+02  1.145635244E+02  1.907348633E-06  0.00000E+00  9.000E+00
#rwgt            1           1   4.0056290239658239E-002           5      403999           0
</event>
<event>
      5   9999  3.79277E-02  4.25176E+01 -1.00000E+00  1.43215E-01
      21    -1     0     0   502   501  0.000000000E+00  0.000000000E+00  1.631845876E+03  1.631845876E+03  0.000000000E+00  0.00000E+00  9.000E+00
       2    -1     0     0   501     0  0.000000000E+00  0.000000000E+00 -3.052482173E+03  3.052482173E+03  0.000000000E+00  0.00000E+00  9.000E+00
      25     1     1     2     0     0 -2.304154735E+02 -2.675359653E+01  9.332363657E+02  9.697227230E+02  1.250000000E+02  0.00000E+00  9.000E+00
      25     1     1     2     0     0  2.011132834E+02 -4.054307782E+00  6.596023421E+02  7.008303931E+02  1.250000000E+02  0.00000E+00  9.000E+00
       2     1     1     2   502     0  2.930219012E+01  3.080790431E+01 -3.013475004E+03  3.013774933E+03  6.103515625E-05  0.00000E+00  9.000E+00
#rwgt            1           1   4.3716353207508607E-002           5      404197           0
</event>
<event>
      5   9999  3.79277E-02  2.66388E+01 -1.00000E+00  1.56713E-01
      21    -1     0     0   502   501  0.000000000E+00  0.000000000E+00  1.986619692E+02  1.986619692E+02  0.000000000E+00  0.00000E+00  9.000E+00
      21    -1     0     0   501   511  0.000000000E+00  0.000000000E+00 -4.725924679E+02  4.725924679E+02  0.000000000E+00  0.00000E+00  9.000E+00
      25     1     1     2     0     0 -5.214362640E+00  4.443450322E+01 -3.541535820E+02  3.782213298E+02  1.250000000E+02  0.00000E+00  9.000E+00
      25     1     1     2     0     0  1.978452044E+01 -2.213347549E+01  1.621529338E+02  2.068813475E+02  1.250000000E+02  0.00000E+00  9.000E+00
      21     1     1     2   502   511 -1.457015780E+01 -2.230102773E+01 -8.192985050E+01  8.615175993E+01  1.348699152E-06  0.00000E+00  9.000E+00
#rwgt            1           1   4.7381886542547387E-002           5      404362           0
</event>
<event>
      5   9999  3.79277E-02  7.05621E+01 -1.00000E+00  1.31045E-01
      21    -1     0     0   502   512  0.000000000E+00  0.000000000E+00  8.543355134E+01  8.543355134E+01  0.000000000E+00  0.00000E+00  9.000E+00
      21    -1     0     0   501   502  0.000000000E+00  0.000000000E+00 -8.072012418E+02  8.072012418E+02  0.000000000E+00  0.00000E+00  9.000E+00
      25     1     1     2     0     0 -1.064821513E+02 -9.900668433E+01 -3.529461050E+02  4.016674310E+02  1.250000000E+02  0.00000E+00  9.000E+00
      25     1     1     2     0     0  1.607453554E+02  1.441122912E+02 -3.171688780E+02  4.035201593E+02  1.250000000E+02  0.00000E+00  9.000E+00
      21     1     1     2   501   512 -5.426320413E+01 -4.510560691E+01 -5.165270746E+01  8.744720284E+01  9.536743164E-07  0.00000E+00  9.000E+00
#rwgt            1           1  0.10812776095187264                5      404527           0
</event>
<event>
      5   9999  3.79277E-02  4.57722E+01 -1.00000E+00  1.41301E-01
       2    -1     0     0   502     0  0.000000000E+00  0.000000000E+00  1.389462785E+02  1.389462785E+02  0.000000000E+00  0.00000E+00  9.000E+00
      21    -1     0     0   501   502  0.000000000E+00  0.000000000E+00 -6.690757047E+02  6.690757047E+02  0.000000000E+00  0.00000E+00  9.000E+00
      25     1     1     2     0     0 -2.438974782E+02 -1.031619780E+02 -3.525526828E+02  4.583085944E+02  1.250000000E+02  0.00000E+00  9.000E+00
      25     1     1     2     0     0  2.003329279E+02  8.911820663E+01 -1.672961710E+02  3.028008348E+02  1.250000000E+02  0.00000E+00  9.000E+00
       2     1     1     2   501     0  4.356455025E+01  1.404377136E+01 -1.028057237E+01  4.691255398E+01  4.768371582E-07  0.00000E+00  9.000E+00
#rwgt            1           1   4.0281490149565176E-002           5      404634           0
</event>
<event>
      5   9999  3.79277E-02  1.57843E+01 -1.00000E+00  1.75323E-01
      21    -1     0     0   511   501  0.000000000E+00  0.000000000E+00  1.945308604E+02  1.945308604E+02  0.000000000E+00  0.00000E+00  9.000E+00
      21    -1     0     0   501   502  0.000000000E+00  0.000000000E+00 -4.056794474E+02  4.056794474E+02  0.000000000E+00  0.00000E+00  9.000E+00
      25     1     1     2     0     0  1.343399832E+02 -1.662544278E+02 -2.818324547E+01  2.492128833E+02  1.250000000E+02  0.00000E+00  9.000E+00
      25     1     1     2     0     0 -1.314153828E+02  1.817654393E+02 -2.016840149E+02  3.265120513E+02  1.250000000E+02  0.00000E+00  9.000E+00
      21     1     1     2   511   502 -2.924600465E+00 -1.551101153E+01  1.871867338E+01  2.448537318E+01  4.768371582E-07  0.00000E+00  9.000E+00
#rwgt            1           1   4.7667998467997331E-002           5      404862           0
</event>
<event>
      5   9999  3.79277E-02  1.41380E+02 -1.00000E+00  1.17422E-01
      21    -1     0     0   512   501  0.000000000E+00  0.000000000E+00  5.796985954E+02  5.796985954E+02  0.000000000E+00  0.00000E+00  9.000E+00
      21    -1     0     0   501   502  0.000000000E+00  0.000000000E+00 -3.723326269E+02  3.723326269E+02  0.000000000E+00  0.00000E+00  9.000E+00
      25     1     1     2     0     0 -9.984749379E+01  3.395958938E+02 -1.094148956E+02  3.910134429E+02  1.250000000E+02  0.00000E+00  9.000E+00
      25     1     1     2     0     0 -5.042607135E-01 -2.400082953E+02  7.478978601E+01  2.807538925E+02  1.250000000E+02  0.00000E+00  9.000E+00
      21     1     1     2   512   502  1.003517545E+02 -9.958759854E+01  2.419910780E+02  2.802638868E+02  4.672030912E-06  0.00000E+00  9.000E+00
#rwgt            1           1   3.9204797547524393E-002           5      405125           0
</event>
<event>
      5   9999  3.79277E-02  3.99833E+01 -1.00000E+00  1.44851E-01
      21    -1     0     0   502   501  0.000000000E+00  0.000000000E+00  1.155208759E+02  1.155208759E+02  0.000000000E+00  0.00000E+00  9.000E+00
      21    -1     0     0   501   511  0.000000000E+00  0.000000000E+00 -5.054964641E+02  5.054964641E+02  0.000000000E+00  0.00000E+00  9.000E+00
      25     1     1     2     0     0  1.599290809E+02 -6.852703058E+00 -1.555761306E+02  2.558382357E+02  1.250000000E+02  0.00000E+00  9.000E+00
      25     1     1     2     0     0 -1.993469592E+02  1.523506401E-01 -1.735799576E+02  2.923939723E+02  1.250000000E+02  0.00000E+00  9.000E+00
      21     1     1     2   502   511  3.941787835E+01  6.700352418E+00 -6.081949989E+01  7.278513188E+01  6.743495762E-07  0.00000E+00  9.000E+00
#rwgt            1           1   3.4376549923264450E-002           5      405174           0
</event>
<event>
      5   9999  3.79277E-02  1.27713E+01 -1.00000E+00  1.84228E-01
      21    -1     0     0   502   501  0.000000000E+00  0.000000000E+00  5.485487326E+02  5.485487326E+02  0.000000000E+00  0.00000E+00  9.000E+00
      21    -1     0     0   501   512  0.000000000E+00  0.000000000E+00 -1.231273907E+02  1.231273907E+02  0.000000000E+00  0.00000E+00  9.000E+00
      25     1     1     2     0     0 -5.475903002E+01  1.382186380E+02  2.635145014E+02  3.273649885E+02  1.250000000E+02  0.00000E+00  9.000E+00
      25     1     1     2     0     0  4.697071256E+01 -1.483403183E+02  2.128510693E+02  2.917904652E+02  1.250000000E+02  0.00000E+00  9.000E+00
      21     1     1     2   502   512  7.788317465E+00  1.012168035E+01 -5.094422871E+01  5.252066966E+01  6.743495762E-07  0.00000E+00  9.000E+00
#rwgt            2          11   9.5069976784343646E-004           5      405260           0
</event>
<event>
      5   9999  3.79277E-02  1.77423E+01 -1.00000E+00  1.70779E-01
      21    -1     0     0   502   501  0.000000000E+00  0.000000000E+00  6.804278319E+01  6.804278319E+01  0.000000000E+00  0.00000E+00  9.000E+00
      -1    -1     0     0     0   502  0.000000000E+00  0.000000000E+00 -6.604283527E+02  6.604283527E+02  0.000000000E+00  0.00000E+00  9.000E+00
      25     1     1     2     0     0  8.302135624E+00  1.366502461E+02 -1.556534644E+02  2.420644877E+02  1.250000000E+02  0.00000E+00  9.000E+00
      25     1     1     2     0     0  6.513680745E+00 -1.268890734E+02 -3.032540598E+02  3.517545874E+02  1.250000000E+02  0.00000E+00  9.000E+00
      -1     1     1     2     0   501 -1.481581637E+01 -9.761172687E+00 -1.334780453E+02  1.346520608E+02  1.907348633E-06  0.00000E+00  9.000E+00
#rwgt            1           1   4.1937101365303368E-002           5      405280           0
</event>
<event>
      5   9999  3.79277E-02  7.78698E+00 -1.00000E+00  2.09215E-01
      21    -1     0     0   502   501  0.000000000E+00  0.000000000E+00  1.888765807E+02  1.888765807E+02  0.000000000E+00  0.00000E+00  9.000E+00
      21    -1     0     0   501   511  0.000000000E+00  0.000000000E+00 -2.199805350E+02  2.199805350E+02  0.000000000E+00  0.00000E+00  9.000E+00
      25     1     1     2     0     0  5.331501294E+01  3.902491128E+01  1.250089135E+02  1.887264230E+02  1.250000000E+02  0.00000E+00  9.000E+00
      25     1     1     2     0     0 -4.669440546E+01 -3.492556051E+01 -1.188802635E+02  1.820925021E+02  1.250000000E+02  0.00000E+00  9.000E+00
      21     1     1     2   502   511 -6.620607484E+00 -4.099350769E+00 -3.723260432E+01  3.803819061E+01  4.768371582E-07  0.00000E+00  9.000E+00
#rwgt            1           1   3.7433027984562030E-002           5      405444           0
</event>
<event>
      5   9999  3.79277E-02  3.33866E+02 -1.00000E+00  1.04104E-01
       2    -1     0     0   502     0  0.000000000E+00  0.000000000E+00  2.983914738E+03  2.983914738E+03  0.000000000E+00  0.00000E+00  9.000E+00
      21    -1     0     0   501   502  0.000000000E+00  0.000000000E+00 -1.254144445E+02  1.254144445E+02  0.000000000E+00  0.00000E+00  9.000E+00
      25     1     1     2     0     0  1.327237481E+02 -4.625485670E+02  1.845264471E+03  1.911071097E+03  1.250000000E+02  0.00000E+00  9.000E+00
      25     1     1     2     0     0 -1.333210360E+02  1.286829780E+02  7.200154257E+02  7.539104859E+02  1.250000000E+02  0.00000E+00  9.000E+00
       2     1     1     2   501     0  5.972878890E-01  3.338655890E+02  2.932203976E+02  4.443476003E+02  7.629394531E-06  0.00000E+00  9.000E+00
#rwgt            1           1   5.9283516524254398E-002           5      405703           0
</event>
<event>
      5   9999  3.79277E-02  3.14827E+01 -1.00000E+00  1.51599E-01
      21    -1     0     0   511   501  0.000000000E+00  0.000000000E+00  8.256281912E+02  8.256281912E+02  0.000000000E+00  0.00000E+00  9.000E+00
      21    -1     0     0   501   502  0.000000000E+00  0.000000000E+00 -5.504372531E+01  5.504372531E+01  0.000000000E+00  0.00000E+00  9.000E+00
      25     1     1     2     0     0  1.397693898E+02 -4.793962075E+00  5.208796513E+02  5.536235865E+02  1.250000000E+02  0.00000E+00  9.000E+00
      25     1     1     2     0     0 -1.170621273E+02  2.660079856E+01  1.765101487E+02  2.473701210E+02  1.250000000E+02  0.00000E+00  9.000E+00
      21     1     1     2   511   502 -2.270726245E+01 -2.180683648E+01  7.319466584E+01  7.967820902E+01  0.000000000E+00  0.00000E+00  9.000E+00
#rwgt            1           1   3.5923867315404263E-002           5      405734           0
</event>
<event>
      5   9999  3.79277E-02  1.29291E+01 -1.00000E+00  1.83686E-01
      21    -1     0     0   502   512  0.000000000E+00  0.000000000E+00  2.581557769E+02  2.581557769E+02  0.000000000E+00  0.00000E+00  9.000E+00
      21    -1     0     0   501   502  0.000000000E+00  0.000000000E+00 -5.831384447E+02  5.831384447E+02  0.000000000E+00  0.00000E+00  9.000E+00
      25     1     1     2     0     0 -5.277492009E+01  8.043754422E+01  6.896361333E+01  1.721521730E+02  1.250000000E+02  0.00000E+00  9.000E+00
      25     1     1     2     0     0  4.027335229E+01 -8.373498323E+01 -5.197964144E+02  5.426295262E+02  1.250000000E+02  0.00000E+00  9.000E+00
      21     1     1     2   501   512  1.250156779E+01  3.297439011E+00  1.258501332E+02  1.265125224E+02  2.697398305E-06  0.00000E+00  9.000E+00
#rwgt            1           1   2.9241344569296650E-002           5      405854           0
</event>
<event>
      5   9999  3.79277E-02  1.84234E+01 -1.00000E+00  1.69366E-01
      21    -1     0     0   511   501  0.000000000E+00  0.000000000E+00  2.344596451E+02  2.344596451E+02  0.000000000E+00  0.00000E+00  9.000E+00
      21    -1     0     0   501   502  0.000000000E+00  0.000000000E+00 -1.342539947E+02  1.342539947E+02  0.000000000E+00  0.00000E+00  9.000E+00
      25     1     1     2     0     0 -4.514025866E+01  1.047409516E+01  1.312180394E+02  1.870575406E+02  1.250000000E+02  0.00000E+00  9.000E+00
      25     1     1     2     0     0  6.216289856E+01 -1.752050357E+01 -5.529585005E+01  1.511748161E+02  1.250000000E+02  0.00000E+00  9.000E+00
      21     1     1     2   511   502 -1.702263990E+01  7.046408416E+00  2.428346110E+01  3.048128317E+01  4.768371582E-07  0.00000E+00  9.000E+00
#rwgt            1           1   5.0921781479925203E-002           5      406120           0
</event>
<event>
      5   9999  3.79277E-02  7.80389E+00 -1.00000E+00  2.09090E-01
      21    -1     0     0   502   512  0.000000000E+00  0.000000000E+00  7.344674434E+01  7.344674434E+01  0.000000000E+00  0.00000E+00  9.000E+00
      21    -1     0     0   501   502  0.000000000E+00  0.000000000E+00 -1.253600941E+03  1.253600941E+03  0.000000000E+00  0.00000E+00  9.000E+00
      25     1     1     2     0     0 -5.873250634E+01 -7.197405662E+01 -1.153829147E+03  1.164292263E+03  1.250000000E+02  0.00000E+00  9.000E+00
      25     1     1     2     0     0  5.507943784E+01  6.507799117E+01 -2.979820105E+01  1.542135603E+02  1.250000000E+02  0.00000E+00  9.000E+00
      21     1     1     2   501   512  3.653068505E+00  6.896065454E+00  3.473151622E+00  8.541862234E+00  1.884864366E-07  0.00000E+00  9.000E+00
#rwgt            1           1   3.8477195246890174E-002           5      406340           0
</event>
<event>
      5   9999  3.79277E-02  8.05016E+01 -1.00000E+00  1.28218E-01
      21    -1     0     0   502   511  0.000000000E+00  0.000000000E+00  8.524058397E+02  8.524058397E+02  0.000000000E+00  0.00000E+00  9.000E+00
      21    -1     0     0   501   502  0.000000000E+00  0.000000000E+00 -5.317375223E+02  5.317375223E+02  0.000000000E+00  0.00000E+00  9.000E+00
      25     1     1     2     0     0  1.049910807E+02 -5.010754671E+01 -1.537901472E+02  2.298049230E+02  1.250000000E+02  0.00000E+00  9.000E+00
      25     1     1     2     0     0 -1.836300427E+02  6.732461567E+01 -2.979800362E+02  3.777164259E+02  1.250000000E+02  0.00000E+00  9.000E+00
      21     1     1     2   501   511  7.863896203E+01 -1.721706897E+01  7.724385007E+02  7.766220131E+02  0.000000000E+00  0.00000E+00  9.000E+00
#rwgt            1           1   3.5873702679531098E-002           5      406685           0
</event>
<event>
      5   9999  3.79277E-02  6.04679E+01 -1.00000E+00  1.34523E-01
      21    -1     0     0   502   501  0.000000000E+00  0.000000000E+00  2.354928765E+02  2.354928765E+02  0.000000000E+00  0.00000E+00  9.000E+00
      21    -1     0     0   501   512  0.000000000E+00  0.000000000E+00 -4.204568066E+02  4.204568066E+02  0.000000000E+00  0.00000E+00  9.000E+00
      25     1     1     2     0     0 -6.653349545E+01 -1.427298979E+02 -1.244961213E+02  2.364800499E+02  1.250000000E+02  0.00000E+00  9.000E+00
      25     1     1     2     0     0  6.105624420E+01  8.251061901E+01  1.376139505E+02  2.123639955E+02  1.250000000E+02  0.00000E+00  9.000E+00
      21     1     1     2   502   512  5.477251246E+00  6.021927893E+01 -1.980817593E+02  2.071056377E+02  0.000000000E+00  0.00000E+00  9.000E+00
#rwgt            1           1   2.0480736174442151E-002           5      406827           0
</event>
<event>
      5   9999  3.79277E-02  7.36436E+00 -1.00000E+00  2.12485E-01
      21    -1     0     0   511   501  0.000000000E+00  0.000000000E+00  6.751063333E+01  6.751063333E+01  0.000000000E+00  0.00000E+00  9.000E+00
      21    -1     0     0   501   502  0.000000000E+00  0.000000000E+00 -6.517717225E+02  6.517717225E+02  0.000000000E+00  0.00000E+00  9.000E+00
      25     1     1     2     0     0 -6.027536716E+01 -1.380339592E+02 -1.851511272E+02  2.694298308E+02  1.250000000E+02  0.00000E+00  9.000E+00
      25     1     1     2     0     0  5.596146586E+01  1.320653755E+02 -3.994863270E+02  4.424785582E+02  1.250000000E+02  0.00000E+00  9.000E+00
      21     1     1     2   511   502  4.313901299E+00  5.968583724E+00  3.763650446E-01  7.373966824E+00  5.674193133E-08  0.00000E+00  9.000E+00
#rwgt            1           1   3.6145865722555778E-002           5      406928           0
</event>
<event>
      5   9999  3.79277E-02  4.44964E+01 -1.00000E+00  1.42028E-01
      21    -1     0     0   502   501  0.000000000E+00  0.000000000E+00  2.120351815E+02  2.120351815E+02  0.000000000E+00  0.00000E+00  9.000E+00
      21    -1     0     0   512   502  0.000000000E+00  0.000000000E+00 -5.582415227E+02  5.582415227E+02  0.000000000E+00  0.00000E+00  9.000E+00
      25     1     1     2     0     0  8.104063709E+01 -1.210248272E+02 -4.005273885E+02  4.441416245E+02  1.250000000E+02  0.00000E+00  9.000E+00
      25     1     1     2     0     0 -1.246006839E+02  1.301050117E+02  1.175734877E+02  2.487994564E+02  1.250000000E+02  0.00000E+00  9.000E+00
      21     1     1     2   512   501  4.356004683E+01 -9.080184469E+00 -6.325244033E+01  7.733562334E+01  1.507891493E-06  0.00000E+00  9.000E+00
#rwgt            1           1   4.6185004357381571E-002           5      407216           0
</event>
<event>
      5   9999  3.79277E-02  7.86068E+01 -1.00000E+00  1.28720E-01
      21    -1     0     0   511   501  0.000000000E+00  0.000000000E+00  6.055086713E+02  6.055086713E+02  0.000000000E+00  0.00000E+00  9.000E+00
      21    -1     0     0   501   502  0.000000000E+00  0.000000000E+00 -1.631569987E+02  1.631569987E+02  0.000000000E+00  0.00000E+00  9.000E+00
      25     1     1     2     0     0 -1.768289858E+02  1.245239220E+02 -3.487568172E+00  2.498236588E+02  1.250000000E+02  0.00000E+00  9.000E+00
      25     1     1     2     0     0  1.075679721E+02 -8.734945027E+01  3.055662517E+02  3.580454291E+02  1.250000000E+02  0.00000E+00  9.000E+00
      21     1     1     2   511   502  6.926101368E+01 -3.717447169E+01  1.402729891E+02  1.607965821E+02  3.303624740E-06  0.00000E+00  9.000E+00
#rwgt            1           1   4.0797528851033500E-002           5      407380           0
</event>
<event>
      5   9999  3.79277E-02  3.03281E+01 -1.00000E+00  1.52712E-01
      21    -1     0     0   502   501  0.000000000E+00  0.000000000E+00  3.599110088E+01  3.599110088E+01  0.000000000E+00  0.00000E+00  9.000E+00
      21    -1     0     0   512   502  0.000000000E+00  0.000000000E+00 -1.214244090E+03  1.214244090E+03  0.000000000E+00  0.00000E+00  9.000E+00
      25     1     1     2     0     0 -8.627435955E+01  5.794169171E+01 -2.235650631E+02  2.764178760E+02  1.250000000E+02  0.00000E+00  9.000E+00
      25     1     1     2     0     0  6.491913857E+01 -7.947644864E+01 -7.995331451E+02  8.157262105E+02  1.250000000E+02  0.00000E+00  9.000E+00
      21     1     1     2   512   501  2.135522098E+01  2.153475693E+01 -1.551547810E+02  1.580911044E+02  1.907348633E-06  0.00000E+00  9.000E+00
#rwgt            1           1   4.3079859579662594E-002           5      407468           0
</event>
<event>
      5   9999  3.79277E-02  1.46454E+02 -1.00000E+00  1.16807E-01
      21    -1     0     0   502   501  0.000000000E+00  0.000000000E+00  2.362298374E+02  2.362298374E+02  0.000000000E+00  0.00000E+00  9.000E+00
      21    -1     0     0   501   511  0.000000000E+00  0.000000000E+00 -9.193088900E+02  9.193088900E+02  0.000000000E+00  0.00000E+00  9.000E+00
      25     1     1     2     0     0 -1.592152369E+02 -3.454065721E+01  2.392705161E+01  2.067366742E+02  1.250000000E+02  0.00000E+00  9.000E+00
      25     1     1     2     0     0  1.217051158E+02  1.761094155E+02 -2.262341951E+01  2.489246484E+02  1.250000000E+02  0.00000E+00  9.000E+00
      21     1     1     2   502   511  3.751012114E+01 -1.415687583E+02 -6.843826848E+02  6.998774048E+02  7.629394531E-06  0.00000E+00  9.000E+00
#rwgt            1           1   3.6591366076504081E-002           5      407622           0
</event>
<event>
      5   9999  3.79277E-02  6.64997E+01 -1.00000E+00  1.32359E-01
      21    -1     0     0   502   512  0.000000000E+00  0.000000000E+00  6.181529967E+02  6.181529967E+02  0.000000000E+00  0.00000E+00  9.000E+00
      21    -1     0     0   501   502  0.000000000E+00  0.000000000E+00 -1.868228277E+02  1.868228277E+02  0.000000000E+00  0.00000E+00  9.000E+00
      25     1     1     2     0     0  1.914067343E+02  3.368320180E+01 -6.847682929E+01  2.410086558E+02  1.250000000E+02  0.00000E+00  9.000E+00
      25     1     1     2     0     0 -1.388128360E+02  7.011953676E+00  4.224221885E+02  4.619347100E+02  1.250000000E+02  0.00000E+00  9.000E+00
      21     1     1     2   501   512 -5.259389827E+01 -4.069515548E+01  7.738480981E+01  1.020324586E+02  2.132480600E-06  0.00000E+00  9.000E+00
#rwgt            1           1   4.8023759311700130E-002           5      407724           0
</event>
<event>
      5   9999  3.79277E-02  5.10811E+01 -1.00000E+00  1.38548E-01
      21    -1     0     0   502   501  0.000000000E+00  0.000000000E+00  6.931338892E+02  6.931338892E+02  0.000000000E+00  0.00000E+00  9.000E+00
      21    -1     0     0   511   502  0.000000000E+00  0.000000000E+00 -3.298326501E+02  3.298326501E+02  0.000000000E+00  0.00000E+00  9.000E+00
      25     1     1     2     0     0 -1.752268711E+01 -8.587621645E+00 -9.261224534E+00  1.268525210E+02  1.250000000E+02  0.00000E+00  9.000E+00
      25     1     1     2     0     0  5.923766074E+01  3.806880807E+01  6.236211588E+02  6.399114660E+02  1.250000000E+02  0.00000E+00  9.000E+00
      21     1     1     2   511   501 -4.171497363E+01 -2.948118643E+01 -2.510586952E+02  2.562025523E+02  5.394796609E-06  0.00000E+00  9.000E+00
#rwgt            1           1   4.1315275982289110E-002           5      407938           0
</event>
<event>
      5   9999  3.79277E-02  1.30835E+01 -1.00000E+00  1.83165E-01
      21    -1     0     0   502   501  0.000000000E+00  0.000000000E+00  2.458798649E+02  2.458798649E+02  0.000000000E+00  0.00000E+00  9.000E+00
      21    -1     0     0   512   502  0.000000000E+00  0.000000000E+00 -2.655774845E+02  2.655774845E+02  0.000000000E+00  0.00000E+00  9.000E+00
      25     1     1     2     0     0 -9.946836572E+01 -1.372944135E+02 -7.433669885E+01  2.233711185E+02  1.250000000E+02  0.00000E+00  9.000E+00
      25     1     1     2     0     0  1.118878538E+02  1.331793892E+02  1.032224681E+02  2.377719905E+02  1.250000000E+02  0.00000E+00  9.000E+00
      21     1     1     2   512   501 -1.241948810E+01  4.115024343E+00 -4.858338889E+01  5.031424039E+01  6.743495762E-07  0.00000E+00  9.000E+00
#rwgt            1           1   4.1999450389288283E-002           5      408032           0
</event>
<event>
      5   9999  3.79277E-02  1.02465E+01 -1.00000E+00  1.94543E-01
      21    -1     0     0   502   501  0.000000000E+00  0.000000000E+00  2.587081638E+02  2.587081638E+02  0.000000000E+00  0.00000E+00  9.000E+00
      21    -1     0     0   501   511  0.000000000E+00  0.000000000E+00 -1.364358783E+02  1.364358783E+02  0.000000000E+00  0.00000E+00  9.000E+00
      25     1     1     2     0     0 -7.357828742E+01 -9.546569887E+01  9.059830246E+01  1.958584092E+02  1.250000000E+02  0.00000E+00  9.000E+00
      25     1     1     2     0     0  7.745252966E+01  1.049514806E+02  4.119441011E+01  1.852989127E+02  1.250000000E+02  0.00000E+00  9.000E+00
      21     1     1     2   502   511 -3.874242242E+00 -9.485781737E+00 -9.520427062E+00  1.398672011E+01  0.000000000E+00  0.00000E+00  9.000E+00
#rwgt            1           1   2.9905565629102553E-002           5      408288           0
</event>
<event>
      5   9999  3.79277E-02  1.16113E+01 -1.00000E+00  1.88544E-01
      21    -1     0     0   502   501  0.000000000E+00  0.000000000E+00  1.806714472E+02  1.806714472E+02  0.000000000E+00  0.00000E+00  9.000E+00
      21    -1     0     0   512   502  0.000000000E+00  0.000000000E+00 -2.011415469E+02  2.011415469E+02  0.000000000E+00  0.00000E+00  9.000E+00
      25     1     1     2     0     0 -1.258903233E+02  2.570212845E+01  1.821035199E+00  1.792687621E+02  1.250000000E+02  0.00000E+00  9.000E+00
      25     1     1     2     0     0  1.288758319E+02 -3.692309275E+01 -7.112419688E+00  1.834335884E+02  1.250000000E+02  0.00000E+00  9.000E+00
      21     1     1     2   512   501 -2.985508621E+00  1.122096429E+01 -1.517871530E+01  1.911064362E+01  1.685873940E-07  0.00000E+00  9.000E+00
#rwgt            1           1   4.4791713911602520E-002           5      408499           0
</event>
<event>
      5   9999  3.79277E-02  2.08193E+01 -1.00000E+00  1.64943E-01
      21    -1     0     0   502   501  0.000000000E+00  0.000000000E+00  3.352668180E+02  3.352668180E+02  0.000000000E+00  0.00000E+00  9.000E+00
      21    -1     0     0   511   502  0.000000000E+00  0.000000000E+00 -4.378051252E+02  4.378051252E+02  0.000000000E+00  0.00000E+00  9.000E+00
      25     1     1     2     0     0  7.632319500E+00 -2.478595802E+02  2.106814577E+02  3.485746697E+02  1.250000000E+02  0.00000E+00  9.000E+00
      25     1     1     2     0     0  8.117352821E+00  2.342436901E+02 -2.927133630E+02  3.952747281E+02  1.250000000E+02  0.00000E+00  9.000E+00
      21     1     1     2   511   501 -1.574967232E+01  1.361589002E+01 -2.050640183E+01  2.922254533E+01  2.384185791E-07  0.00000E+00  9.000E+00
#rwgt            1           1   3.6581298144724883E-002           5      408688           0
</event>
<event>
      5   9999  3.79277E-02  7.66700E+01 -1.00000E+00  1.29250E-01
      21    -1     0     0   502   512  0.000000000E+00  0.000000000E+00  2.649512554E+02  2.649512554E+02  0.000000000E+00  0.00000E+00  9.000E+00
      21    -1     0     0   501   502  0.000000000E+00  0.000000000E+00 -2.050352867E+02  2.050352867E+02  0.000000000E+00  0.00000E+00  9.000E+00
      25     1     1     2     0     0 -4.920592436E+01  6.138656242E+01 -6.826724753E+01  1.627112477E+02  1.250000000E+02  0.00000E+00  9.000E+00
      25     1     1     2     0     0  7.956340554E+01 -1.317905264E+02  1.157228231E+02  2.295993252E+02  1.250000000E+02  0.00000E+00  9.000E+00
      21     1     1     2   501   512 -3.035748118E+01  7.040396393E+01  1.246039309E+01  7.767596924E+01  1.617033478E-06  0.00000E+00  9.000E+00
#rwgt            1           1   4.3903603890985042E-002           5      408942           0
</event>
<event>
      5   9999  3.79277E-02  2.09475E+01 -1.00000E+00  1.64727E-01
      21    -1     0     0   502   511  0.000000000E+00  0.000000000E+00  9.571297225E+01  9.571297225E+01  0.000000000E+00  0.00000E+00  9.000E+00
      21    -1     0     0   501   502  0.000000000E+00  0.000000000E+00 -6.663261671E+02  6.663261671E+02  0.000000000E+00  0.00000E+00  9.000E+00
      25     1     1     2     0     0  1.394506263E+02  1.557143633E+02 -2.480834904E+02  3.476547976E+02  1.250000000E+02  0.00000E+00  9.000E+00
      25     1     1     2     0     0 -1.185996639E+02 -1.577226891E+02 -3.149158870E+02  3.920960887E+02  1.250000000E+02  0.00000E+00  9.000E+00
      21     1     1     2   501   511 -2.085096236E+01  2.008325811E+00 -7.613817479E+00  2.228825297E+01  2.528810911E-07  0.00000E+00  9.000E+00
#rwgt            1           1   3.8170485872894448E-002           5      409092           0
</event>
<event>
      5   9999  3.79277E-02  2.14990E+02 -1.00000E+00  1.10517E-01
      21    -1     0     0   502   501  0.000000000E+00  0.000000000E+00  3.797410971E+02  3.797410971E+02  0.000000000E+00  0.00000E+00  9.000E+00
       2    -1     0     0   501     0  0.000000000E+00  0.000000000E+00 -8.456040105E+02  8.456040105E+02  0.000000000E+00  0.00000E+00  9.000E+00
      25     1     1     2     0     0 -1.885848955E+01 -1.751132690E+02 -2.631221231E+02  3.404093877E+02  1.250000000E+02  0.00000E+00  9.000E+00
      25     1     1     2     0     0 -9.999442474E+01 -4.036932874E+00  2.989428781E+02  3.391268585E+02  1.250000000E+02  0.00000E+00  9.000E+00
       2     1     1     2   502     0  1.188529143E+02  1.791502018E+02 -5.016836684E+02  5.458088614E+02  5.394796609E-06  0.00000E+00  9.000E+00
#rwgt            1           1   3.9917680824541633E-002           5      409310           0
</event>
<event>
      5   9999  3.79277E-02  1.98035E+01 -1.00000E+00  1.66724E-01
      21    -1     0     0   511   501  0.000000000E+00  0.000000000E+00  5.727416955E+02  5.727416955E+02  0.000000000E+00  0.00000E+00  9.000E+00
      21    -1     0     0   501   502  0.000000000E+00  0.000000000E+00 -2.049034533E+02  2.049034533E+02  0.000000000E+00  0.00000E+00  9.000E+00
      25     1     1     2     0     0 -1.014420661E+02 -1.981033684E+02  6.393875867E+01  2.631512915E+02  1.250000000E+02  0.00000E+00  9.000E+00
      25     1     1     2     0     0  1.179258292E+02  2.090789663E+02  6.971557027E+01  2.794741063E+02  1.250000000E+02  0.00000E+00  9.000E+00
      21     1     1     2   511   502 -1.648376310E+01 -1.097559789E+01  2.341839132E+02  2.350197511E+02  3.814697266E-06  0.00000E+00  9.000E+00
#rwgt            1           1   3.4329709686196190E-002           5      409345           0
</event>
<event>
      5   9999  3.79277E-02  1.10701E+02 -1.00000E+00  1.21874E-01
      21    -1     0     0   502   512  0.000000000E+00  0.000000000E+00  4.215748362E+02  4.215748362E+02  0.000000000E+00  0.00000E+00  9.000E+00
      21    -1     0     0   501   502  0.000000000E+00  0.000000000E+00 -4.855794063E+02  4.855794063E+02  0.000000000E+00  0.00000E+00  9.000E+00
      25     1     1     2     0     0  3.739583356E+02 -9.201377030E+01 -1.885997849E+02  4.466612246E+02  1.250000000E+02  0.00000E+00  9.000E+00
      25     1     1     2     0     0 -2.929399503E+02  1.657665668E+01  4.053043161E+01  3.214907711E+02  1.250000000E+02  0.00000E+00  9.000E+00
      21     1     1     2   501   512 -8.101838531E+01  7.543711362E+01  8.406478314E+01  1.390022469E+02  1.651812370E-06  0.00000E+00  9.000E+00
#rwgt            1           1   2.6675979801406312E-002           5      409575           0
</event>
<event>
      5   9999  3.79277E-02  2.68000E+01 -1.00000E+00  1.56522E-01
      21    -1     0     0   502   501  0.000000000E+00  0.000000000E+00  5.992394490E+01  5.992394490E+01  0.000000000E+00  0.00000E+00  9.000E+00
      21    -1     0     0   501   511  0.000000000E+00  0.000000000E+00 -1.560189519E+03  1.560189519E+03  0.000000000E+00  0.00000E+00  9.000E+00
      25     1     1     2     0     0 -2.487632709E+02  1.543099529E+01 -4.970235928E+02  5.698936150E+02  1.250000000E+02  0.00000E+00  9.000E+00
      25     1     1     2     0     0  2.361876682E+02 -3.909726709E+01 -7.811960754E+02  8.265624714E+02  1.250000000E+02  0.00000E+00  9.000E+00
      21     1     1     2   502   511  1.257560266E+01  2.366627181E+01 -2.220459056E+02  2.236573773E+02  2.697398305E-06  0.00000E+00  9.000E+00
#rwgt            1           1   3.8472029946831757E-002           5      409719           0
</event>
<event>
      5   9999  3.79277E-02  1.10722E+02 -1.00000E+00  1.21871E-01
      21    -1     0     0   512   501  0.000000000E+00  0.000000000E+00  6.130868908E+02  6.130868908E+02  0.000000000E+00  0.00000E+00  9.000E+00
      21    -1     0     0   501   502  0.000000000E+00  0.000000000E+00 -1.127554102E+02  1.127554102E+02  0.000000000E+00  0.00000E+00  9.000E+00
      25     1     1     2     0     0  3.132436221E+01 -1.828616339E+02  8.862039837E+01  2.406203811E+02  1.250000000E+02  0.00000E+00  9.000E+00
      25     1     1     2     0     0 -1.788797615E+01  7.295784405E+01  2.240407276E+02  2.673239128E+02  1.250000000E+02  0.00000E+00  9.000E+00
      21     1     1     2   512   502 -1.343638607E+01  1.099037898E+02  1.876703546E+02  2.178980071E+02  2.697398305E-06  0.00000E+00  9.000E+00
#rwgt            1           1   4.8852318619830547E-002           5      409961           0
</event>
<event>
      5   9999  3.79277E-02  2.04714E+01 -1.00000E+00  1.65539E-01
      21    -1     0     0   502   501  0.000000000E+00  0.000000000E+00  1.062490208E+02  1.062490208E+02  0.000000000E+00  0.00000E+00  9.000E+00
      21    -1     0     0   511   502  0.000000000E+00  0.000000000E+00 -7.386487677E+02  7.386487677E+02  0.000000000E+00  0.00000E+00  9.000E+00
      25     1     1     2     0     0 -8.648823990E+01 -1.752528410E+02 -5.139641874E+02  5.638953448E+02  1.250000000E+02  0.00000E+00  9.000E+00
      25     1     1     2     0     0  7.097784202E+01  1.618921668E+02 -6.857043715E+01  2.270987287E+02  1.250000000E+02  0.00000E+00  9.000E+00
      21     1     1     2   511   501  1.551039788E+01  1.336067416E+01 -4.986512240E+01  5.390371498E+01  0.000000000E+00  0.00000E+00  9.000E+00
#rwgt            1           1   2.9796000516885846E-002           5      410040           0
</event>
<event>
      5   9999  3.79277E-02  1.65398E+01 -1.00000E+00  1.73477E-01
      21    -1     0     0   502   512  0.000000000E+00  0.000000000E+00  3.056595154E+02  3.056595154E+02  0.000000000E+00  0.00000E+00  9.000E+00
      21    -1     0     0   501   502  0.000000000E+00  0.000000000E+00 -3.822585959E+02  3.822585959E+02  0.000000000E+00  0.00000E+00  9.000E+00
      25     1     1     2     0     0  2.258563536E+02  1.505307857E+02 -6.902397499E+01  3.066918959E+02  1.250000000E+02  0.00000E+00  9.000E+00
      25     1     1     2     0     0 -2.212660709E+02 -1.664208068E+02 -7.409462810E+01  3.126812642E+02  1.250000000E+02  0.00000E+00  9.000E+00
      21     1     1     2   501   512 -4.590282651E+00  1.589002113E+01  6.651952253E+01  6.854495126E+01  0.000000000E+00  0.00000E+00  9.000E+00
#rwgt            1           1   3.5265106715641890E-002           5      410361           0
</event>
<event>
      5   9999  3.79277E-02  1.19242E+02 -1.00000E+00  1.20485E-01
      21    -1     0     0   502   511  0.000000000E+00  0.000000000E+00  1.352261849E+02  1.352261849E+02  0.000000000E+00  0.00000E+00  9.000E+00
      21    -1     0     0   501   502  0.000000000E+00  0.000000000E+00 -6.735755880E+02  6.735755880E+02  0.000000000E+00  0.00000E+00  9.000E+00
      25     1     1     2     0     0  1.440888388E+02 -1.409941845E+01 -4.494021046E+02  4.884133891E+02  1.250000000E+02  0.00000E+00  9.000E+00
      25     1     1     2     0     0 -9.624468661E+01 -9.512334459E+01 -7.991214426E+01  2.008044850E+02  1.250000000E+02  0.00000E+00  9.000E+00
      21     1     1     2   501   511 -4.784415216E+01  1.092227630E+02 -9.035154242E+00  1.195838989E+02  2.354194839E-06  0.00000E+00  9.000E+00
#rwgt            1           1   4.0233742132478011E-002           5      410547           0
</event>
<event>
      5   9999  3.79277E-02  1.68897E+01 -1.00000E+00  1.72663E-01
      21    -1     0     0   502   512  0.000000000E+00  0.000000000E+00  3.675374367E+02  3.675374367E+02  0.000000000E+00  0.00000E+00  9.000E+00
      21    -1     0     0   501   502  0.000000000E+00  0.000000000E+00 -1.266084841E+03  1.266084841E+03  0.000000000E+00  0.00000E+00  9.000E+00
      25     1     1     2     0     0 -2.591738667E+01  1.355520472E+02 -4.663237449E+02  5.021243904E+02  1.250000000E+02  0.00000E+00  9.000E+00
      25     1     1     2     0     0  9.987863206E+00 -1.411656802E+02 -7.702469616E+02  7.930528914E+02  1.250000000E+02  0.00000E+00  9.000E+00
      21     1     1     2   501   512  1.592952346E+01  5.613632969E+00  3.380233021E+02  3.384449960E+02  0.000000000E+00  0.00000E+00  9.000E+00
#rwgt            1           1   4.5752705598267635E-002           5      410725           0
</event>
<event>
      5   9999  3.79277E-02  4.79413E+01 -1.00000E+00  1.40125E-01
      21    -1     0     0   511   501  0.000000000E+00  0.000000000E+00  4.813062903E+02  4.813062903E+02  0.000000000E+00  0.00000E+00  9.000E+00
      21    -1     0     0   501   502  0.000000000E+00  0.000000000E+00 -2.082153546E+02  2.082153546E+02  0.000000000E+00  0.00000E+00  9.000E+00
      25     1     1     2     0     0 -2.376383363E-02 -1.071400325E+02  2.685647436E+01  1.668090446E+02  1.250000000E+02  0.00000E+00  9.000E+00
      25     1     1     2     0     0  4.705036584E+01  9.781991371E+01 -8.633078845E+01  1.867096074E+02  1.250000000E+02  0.00000E+00  9.000E+00
      21     1     1     2   511   502 -4.702660200E+01  9.320118840E+00  3.325652498E+02  3.360029930E+02  3.814697266E-06  0.00000E+00  9.000E+00
#rwgt            1           1  0.13204093014583984                5      410878           0
</event>
<event>
      5   9999  3.79277E-02  4.31624E+01 -1.00000E+00  1.42820E-01
       5    -1     0     0   502     0  0.000000000E+00  0.000000000E+00  7.129536280E+02  7.129536280E+02  0.000000000E+00  0.00000E+00  9.000E+00
      21    -1     0     0   501   502  0.000000000E+00  0.000000000E+00 -3.106434056E+02  3.106434056E+02  0.000000000E+00  0.00000E+00  9.000E+00
      25     1     1     2     0     0 -1.529883890E+02  2.849485964E+01 -1.910374034E+02  2.762927681E+02  1.250000000E+02  0.00000E+00  9.000E+00
      25     1     1     2     0     0  1.245760644E+02  3.997146900E+00  2.612898720E+01  1.784457816E+02  1.250000000E+02  0.00000E+00  9.000E+00
       5     1     1     2   501     0  2.841232467E+01 -3.249200654E+01  5.672186386E+02  5.688584839E+02  1.321449896E-05  0.00000E+00  9.000E+00
#rwgt            1           1   4.5660362825393749E-002           5      411003           0
</event>
<event>
      5   9999  3.79277E-02  5.67309E+01 -1.00000E+00  1.36017E-01
       1    -1     0     0   502     0  0.000000000E+00  0.000000000E+00  7.441156142E+02  7.441156142E+02  0.000000000E+00  0.00000E+00  9.000E+00
      21    -1     0     0   501   502  0.000000000E+00  0.000000000E+00 -4.221467822E+02  4.221467822E+02  0.000000000E+00  0.00000E+00  9.000E+00
      25     1     1     2     0     0 -8.386369411E+01 -1.230581888E+02 -2.968149833E+01  1.966784899E+02  1.250000000E+02  0.00000E+00  9.000E+00
      25     1     1     2     0     0  6.440052560E+01  6.977043706E+01 -2.876916984E+02  3.277298505E+02  1.250000000E+02  0.00000E+00  9.000E+00
       1     1     1     2   501     0  1.946316851E+01  5.328775179E+01  6.393420288E+02  6.418540560E+02  0.000000000E+00  0.00000E+00  9.000E+00
#rwgt            1           1   3.6842808581533583E-002           5      411155           0
</event>
<event>
      5   9999 -3.79277E-02  6.74221E+01 -1.00000E+00  1.32051E-01
      21    -1     0     0   502   511  0.000000000E+00  0.000000000E+00  3.914601650E+02  3.914601650E+02  0.000000000E+00  0.00000E+00  9.000E+00
      21    -1     0     0   501   502  0.000000000E+00  0.000000000E+00 -7.421894133E+02  7.421894133E+02  0.000000000E+00  0.00000E+00  9.000E+00
      25     1     1     2     0     0  4.527434400E+01  1.498789181E+02 -1.702903141E+02  2.629396269E+02  1.250000000E+02  0.00000E+00  9.000E+00
      25     1     1     2     0     0 -9.963851682E+01 -1.100006656E+02 -5.040706586E+02  5.401298078E+02  1.250000000E+02  0.00000E+00  9.000E+00
      21     1     1     2   501   511  5.436417282E+01 -3.987825249E+01  3.236317244E+02  3.305801436E+02  3.814697266E-06  0.00000E+00  9.000E+00
#rwgt            1           1 -0.14894157965577229                5      411289           0
</event>
<event>
      5   9999  3.79277E-02  1.29024E+02 -1.00000E+00  1.19047E-01
      21    -1     0     0   512   501  0.000000000E+00  0.000000000E+00  2.152799442E+03  2.152799442E+03  0.000000000E+00  0.00000E+00  9.000E+00
      21    -1     0     0   501   502  0.000000000E+00  0.000000000E+00 -4.883905755E+01  4.883905755E+01  0.000000000E+00  0.00000E+00  9.000E+00
      25     1     1     2     0     0 -1.256182490E+02 -2.231647072E+02  6.262794329E+02  6.880649381E+02  1.250000000E+02  0.00000E+00  9.000E+00
      25     1     1     2     0     0  1.844852202E+01  1.513182950E+02  8.208695465E+02  8.442093264E+02  1.250000000E+02  0.00000E+00  9.000E+00
      21     1     1     2   512   502  1.071697270E+02  7.184641221E+01  6.568114052E+02  6.693642352E+02  7.629394531E-06  0.00000E+00  9.000E+00
#rwgt            1           1   3.9894109224180421E-002           5      411360           0
</event>
<event>
      5   9999  3.79277E-02  3.74835E+01 -1.00000E+00  1.46612E-01
      21    -1     0     0   502   501  0.000000000E+00  0.000000000E+00  3.063756906E+03  3.063756906E+03  0.000000000E+00  0.00000E+00  9.000E+00
      21    -1     0     0   511   502  0.000000000E+00  0.000000000E+00 -1.498954554E+01  1.498954554E+01  0.000000000E+00  0.00000E+00  9.000E+00
      25     1     1     2     0     0  2.931262578E+01  1.233285184E+02  2.236006311E+03  2.243082338E+03  1.250000000E+02  0.00000E+00  9.000E+00
      25     1     1     2     0     0 -2.689982393E+01 -8.592279613E+01  7.029507034E+02  7.196325582E+02  1.250000000E+02  0.00000E+00  9.000E+00
      21     1     1     2   511   501 -2.412801845E+00 -3.740572225E+01  1.098103462E+02  1.160315552E+02  2.697398305E-06  0.00000E+00  9.000E+00
#rwgt            1           1   3.2042255471516623E-002           5      411451           0
</event>
<event>
      5   9999  3.79277E-02  3.71595E+01 -1.00000E+00  1.46852E-01
      21    -1     0     0   502   501  0.000000000E+00  0.000000000E+00  1.720651024E+03  1.720651024E+03  0.000000000E+00  0.00000E+00  9.000E+00
      21    -1     0     0   501   512  0.000000000E+00  0.000000000E+00 -8.071485851E+02  8.071485851E+02  0.000000000E+00  0.00000E+00  9.000E+00
      25     1     1     2     0     0  3.589173246E+02 -1.619059054E+00  1.102936937E+03  1.166584396E+03  1.250000000E+02  0.00000E+00  9.000E+00
      25     1     1     2     0     0 -3.491365810E+02 -3.423012724E+01  5.261790919E+02  6.446374877E+02  1.250000000E+02  0.00000E+00  9.000E+00
      21     1     1     2   502   512 -9.780743553E+00  3.584918630E+01 -7.156135894E+02  7.165777253E+02  1.525878906E-05  0.00000E+00  9.000E+00
#rwgt            1           1   3.9646139465528620E-002           5      411589           0
</event>
<event>
      5   9999  3.79277E-02  1.05428E+02 -1.00000E+00  1.22804E-01
      21    -1     0     0   511   501  0.000000000E+00  0.000000000E+00  1.270238633E+03  1.270238633E+03  0.000000000E+00  0.00000E+00  9.000E+00
      21    -1     0     0   501   502  0.000000000E+00  0.000000000E+00 -1.054665537E+02  1.054665537E+02  0.000000000E+00  0.00000E+00  9.000E+00
      25     1     1     2     0     0  1.008258592E+01 -7.380942930E+01  9.229272209E+02  9.343281787E+02  1.250000000E+02  0.00000E+00  9.000E+00
      25     1     1     2     0     0 -4.368582900E+01 -2.612015622E+01 -3.974648493E+01  1.406964722E+02  1.250000000E+02  0.00000E+00  9.000E+00
      21     1     1     2   511   502  3.360324309E+01  9.992958552E+01  2.815913437E+02  3.006805362E+02  3.814697266E-06  0.00000E+00  9.000E+00
#rwgt            1           1   4.6555544852470994E-002           5      411897           0
</event>
<event>
      5   9999  3.79277E-02  1.65147E+01 -1.00000E+00  1.73536E-01
      21    -1     0     0   502   501  0.000000000E+00  0.000000000E+00  6.120900852E+02  6.120900852E+02  0.000000000E+00  0.00000E+00  9.000E+00
      21    -1     0     0   501   512  0.000000000E+00  0.000000000E+00 -6.724624718E+01  6.724624718E+01  0.000000000E+00  0.00000E+00  9.000E+00
      25     1     1     2     0     0  1.122915239E+02 -8.393556393E+01  3.273615236E+02  3.774190408E+02  1.250000000E+02  0.00000E+00  9.000E+00
      25     1     1     2     0     0 -1.262615036E+02  7.512791868E+01  2.001780948E+02  2.779971962E+02  1.250000000E+02  0.00000E+00  9.000E+00
      21     1     1     2   502   512  1.396997966E+01  8.807645254E+00  1.730421958E+01  2.392009536E+01  0.000000000E+00  0.00000E+00  9.000E+00
#rwgt            1           1   2.9774824293296070E-002           5      412028           0
</event>
<event>
      5   9999  3.79277E-02  3.03903E+01 -1.00000E+00  1.52651E-01
      21    -1     0     0   511   501  0.000000000E+00  0.000000000E+00  4.903581716E+01  4.903581716E+01  0.000000000E+00  0.00000E+00  9.000E+00
      21    -1     0     0   501   502  0.000000000E+00  0.000000000E+00 -9.513494406E+02  9.513494406E+02  0.000000000E+00  0.00000E+00  9.000E+00
      25     1     1     2     0     0  3.489258469E+01  1.352607590E+02 -3.060071790E+02  3.588570174E+02  1.250000000E+02  0.00000E+00  9.000E+00
      25     1     1     2     0     0 -1.231029893E+01 -1.555981216E+02 -5.572378934E+02  5.920315775E+02  1.250000000E+02  0.00000E+00  9.000E+00
      21     1     1     2   511   502 -2.258228576E+01  2.033736260E+01 -3.906855108E+01  4.949666283E+01  6.743495762E-07  0.00000E+00  9.000E+00
#rwgt            1           1  0.25166958170276754                5      412208           0
</event>
<event>
      5   9999  3.79277E-02  1.40308E+02 -1.00000E+00  1.17555E-01
      21    -1     0     0   512   501  0.000000000E+00  0.000000000E+00  4.047040919E+01  4.047040919E+01  0.000000000E+00  0.00000E+00  9.000E+00
      21    -1     0     0   501   502  0.000000000E+00  0.000000000E+00 -1.627868819E+03  1.627868819E+03  0.000000000E+00  0.00000E+00  9.000E+00
      25     1     1     2     0     0 -8.549675091E+01 -1.690379401E+02 -6.953955016E+02  7.314939666E+02  1.250000000E+02  0.00000E+00  9.000E+00
      25     1     1     2     0     0  5.260054760E+01  3.264115111E+01 -5.445674065E+02  5.621484880E+02  1.250000000E+02  0.00000E+00  9.000E+00
      21     1     1     2   512   502  3.289620331E+01  1.363967890E+02 -3.474355019E+02  3.746967737E+02  3.814697266E-06  0.00000E+00  9.000E+00
#rwgt            1           1   4.2590217788984454E-002           5      412527           0
</event>
<event>
      5   9999  3.79277E-02  3.20929E+01 -1.00000E+00  1.51033E-01
      21    -1     0     0   502   501  0.000000000E+00  0.000000000E+00  1.562090803E+02  1.562090803E+02  0.000000000E+00  0.00000E+00  9.000E+00
      21    -1     0     0   511   502  0.000000000E+00  0.000000000E+00 -4.696823479E+02  4.696823479E+02  0.000000000E+00  0.00000E+00  9.000E+00
      25     1     1     2     0     0 -8.081770461E+01 -6.635152026E+01 -1.781369441E+02  2.414369410E+02  1.250000000E+02  0.00000E+00  9.000E+00
      25     1     1     2     0     0  6.256691201E+01  9.274962996E+01  6.622455384E+01  1.803546613E+02  1.250000000E+02  0.00000E+00  9.000E+00
      21     1     1     2   511   501  1.825079260E+01 -2.639810970E+01 -2.015608774E+02  2.040998258E+02  2.697398305E-06  0.00000E+00  9.000E+00
#rwgt            1           1   3.1028069489174158E-002           5      412639           0
</event>
<event>
      5   9999  3.79277E-02  4.20225E+01 -1.00000E+00  1.43524E-01
      21    -1     0     0   502   501  0.000000000E+00  0.000000000E+00  3.327286764E+02  3.327286764E+02  0.000000000E+00  0.00000E+00  9.000E+00
      21    -1     0     0   501   512  0.000000000E+00  0.000000000E+00 -4.345101080E+02  4.345101080E+02  0.000000000E+00  0.00000E+00  9.000E+00
      25     1     1     2     0     0  1.227246229E+02  4.596367366E-01 -2.088981736E+01  1.764169176E+02  1.250000000E+02  0.00000E+00  9.000E+00
      25     1     1     2     0     0 -1.041247516E+02 -3.814171837E+01  2.260006442E+02  2.810659100E+02  1.250000000E+02  0.00000E+00  9.000E+00
      21     1     1     2   502   512 -1.859987135E+01  3.768208163E+01 -3.068922585E+02  3.097559568E+02  0.000000000E+00  0.00000E+00  9.000E+00
#rwgt            1           1   3.8079136215171831E-002           5      412824           0
</event>
<event>
      5   9999  3.79277E-02  7.49581E+01 -1.00000E+00  1.29733E-01
      21    -1     0     0   511   501  0.000000000E+00  0.000000000E+00  3.863631519E+02  3.863631519E+02  0.000000000E+00  0.00000E+00  9.000E+00
      21    -1     0     0   501   502  0.000000000E+00  0.000000000E+00 -2.121179081E+02  2.121179081E+02  0.000000000E+00  0.00000E+00  9.000E+00
      25     1     1     2     0     0  1.396017581E+02  2.989675631E+01  8.771520142E+01  2.090488543E+02  1.250000000E+02  0.00000E+00  9.000E+00
      25     1     1     2     0     0 -1.370066433E+02  4.501642765E+01 -7.990311305E+01  2.068980583E+02  1.250000000E+02  0.00000E+00  9.000E+00
      21     1     1     2   511   502 -2.595114807E+00 -7.491318395E+01  1.664331554E+02  1.825341474E+02  1.907348633E-06  0.00000E+00  9.000E+00
#rwgt            1           1   1.8898925186634864E-002           5      412950           0
</event>
<event>
      5   9999  3.79277E-02  4.96575E+01 -1.00000E+00  1.39246E-01
      21    -1     0     0   512   501  0.000000000E+00  0.000000000E+00  7.730938210E+02  7.730938210E+02  0.000000000E+00  0.00000E+00  9.000E+00
      21    -1     0     0   501   502  0.000000000E+00  0.000000000E+00 -3.023900573E+02  3.023900573E+02  0.000000000E+00  0.00000E+00  9.000E+00
      25     1     1     2     0     0 -1.432594207E+02  1.389518652E+02  1.938144204E+01  2.362869500E+02  1.250000000E+02  0.00000E+00  9.000E+00
      25     1     1     2     0     0  1.413235542E+02 -8.933214660E+01 -1.364105302E+02  2.493700306E+02  1.250000000E+02  0.00000E+00  9.000E+00
      21     1     1     2   512   502  1.935866492E+00 -4.961971855E+01  5.877328518E+02  5.898268976E+02  0.000000000E+00  0.00000E+00  9.000E+00
#rwgt            1           1   4.1135682041401458E-002           5      413010           0
</event>
<event>
      5   9999  3.79277E-02  3.67824E+01 -1.00000E+00  1.47136E-01
      21    -1     0     0   511   501  0.000000000E+00  0.000000000E+00  8.729119757E+01  8.729119757E+01  0.000000000E+00  0.00000E+00  9.000E+00
      21    -1     0     0   501   502  0.000000000E+00  0.000000000E+00 -8.834567152E+02  8.834567152E+02  0.000000000E+00  0.00000E+00  9.000E+00
      25     1     1     2     0     0  5.909789577E+01  5.555419556E+00  8.378934549E+00  1.386312754E+02  1.250000000E+02  0.00000E+00  9.000E+00
      25     1     1     2     0     0 -8.994080772E+01  1.448611148E+01 -7.534320357E+02  7.691449986E+02  1.250000000E+02  0.00000E+00  9.000E+00
      21     1     1     2   511   502  3.084291196E+01 -2.004153103E+01 -5.111241646E+01  6.297163885E+01  1.348699152E-06  0.00000E+00  9.000E+00
#rwgt            1           1   3.8001475335243916E-002           5      413139           0
</event>
<event>
      5   9999  3.79277E-02  3.76854E+01 -1.00000E+00  1.46464E-01
      21    -1     0     0   512   501  0.000000000E+00  0.000000000E+00  1.040825660E+02  1.040825660E+02  0.000000000E+00  0.00000E+00  9.000E+00
      21    -1     0     0   501   502  0.000000000E+00  0.000000000E+00 -7.233232505E+02  7.233232505E+02  0.000000000E+00  0.00000E+00  9.000E+00
      25     1     1     2     0     0  1.289187335E+02 -1.638720665E+01 -2.308871853E+02  2.929547281E+02  1.250000000E+02  0.00000E+00  9.000E+00
      25     1     1     2     0     0 -1.008367981E+02 -8.744333183E+00 -4.411663116E+02  4.695713339E+02  1.250000000E+02  0.00000E+00  9.000E+00
      21     1     1     2   512   502 -2.808193541E+01  2.513153984E+01  5.281281232E+01  6.487975444E+01  1.348699152E-06  0.00000E+00  9.000E+00
#rwgt            1           1   3.3181684868543511E-002           5      413273           0
</event>
<event>
      5   9999  3.79277E-02  1.81932E+01 -1.00000E+00  1.69835E-01
      21    -1     0     0   502   501  0.000000000E+00  0.000000000E+00  6.496227132E+01  6.496227132E+01  0.000000000E+00  0.00000E+00  9.000E+00
      21    -1     0     0   511   502  0.000000000E+00  0.000000000E+00 -7.828201073E+02  7.828201073E+02  0.000000000E+00  0.00000E+00  9.000E+00
      25     1     1     2     0     0 -1.185959763E+02 -6.356605505E+01 -3.633655678E+02  4.071427082E+02  1.250000000E+02  0.00000E+00  9.000E+00
      25     1     1     2     0     0  1.017546756E+02  5.668399351E+01 -1.281705115E+02  2.135878488E+02  1.250000000E+02  0.00000E+00  9.000E+00
      21     1     1     2   511   501  1.684130069E+01  6.882061536E+00 -2.263217566E+02  2.270518216E+02  2.697398305E-06  0.00000E+00  9.000E+00
#rwgt            1           1   2.6248055720796398E-002           5      413366           0
</event>
<event>
      5   9999  3.79277E-02  3.77519E+01 -1.00000E+00  1.46416E-01
      21    -1     0     0   502   501  0.000000000E+00  0.000000000E+00  1.217026816E+02  1.217026816E+02  0.000000000E+00  0.00000E+00  9.000E+00
      21    -1     0     0   501   512  0.000000000E+00  0.000000000E+00 -7.522689974E+02  7.522689974E+02  0.000000000E+00  0.00000E+00  9.000E+00
      25     1     1     2     0     0  2.624349397E+01  3.135214962E+01  7.239494949E+01  1.501256373E+02  1.250000000E+02  0.00000E+00  9.000E+00
      25     1     1     2     0     0 -4.767391549E+01 -2.724762260E-01 -5.120711004E+02  5.292586214E+02  1.250000000E+02  0.00000E+00  9.000E+00
      21     1     1     2   502   512  2.143042152E+01 -3.107967339E+01 -1.908901649E+02  1.945874203E+02  3.814697266E-06  0.00000E+00  9.000E+00
#rwgt            1           1   4.1036265046040500E-002           5      413568           0
</event>
<event>
      5   9999  3.79277E-02  1.47176E+02 -1.00000E+00  1.16722E-01
      21    -1     0     0   502   501  0.000000000E+00  0.000000000E+00  7.554484679E+01  7.554484679E+01  0.000000000E+00  0.00000E+00  9.000E+00
       2    -1     0     0   501     0  0.000000000E+00  0.000000000E+00 -2.917466491E+03  2.917466491E+03  0.000000000E+00  0.00000E+00  9.000E+00
      25     1     1     2     0     0  1.006085639E+02  7.912498097E+01 -1.358682875E+02  2.246509232E+02  1.250000000E+02  0.00000E+00  9.000E+00
      25     1     1     2     0     0 -1.561530611E+02  5.716711846E+01 -3.460089496E+02  4.037314097E+02  1.250000000E+02  0.00000E+00  9.000E+00
       2     1     1     2   502     0  5.554449727E+01 -1.362920994E+02 -2.360044407E+03  2.364629005E+03  0.000000000E+00  0.00000E+00  9.000E+00
#rwgt            1           1   4.4992195043262406E-002           5      413800           0
</event>
<event>
      5   9999  3.79277E-02  4.91321E+01 -1.00000E+00  1.39511E-01
      21    -1     0     0   502   511  0.000000000E+00  0.000000000E+00  2.069764772E+02  2.069764772E+02  0.000000000E+00  0.00000E+00  9.000E+00
      21    -1     0     0   501   502  0.000000000E+00  0.000000000E+00 -6.724938354E+02  6.724938354E+02  0.000000000E+00  0.00000E+00  9.000E+00
      25     1     1     2     0     0 -3.071285349E+02 -1.510961862E+02 -2.669183498E+02  4.516950297E+02  1.250000000E+02  0.00000E+00  9.000E+00
      25     1     1     2     0     0  2.824490859E+02  1.086121878E+02 -1.878744814E+02  3.774863100E+02  1.250000000E+02  0.00000E+00  9.000E+00
      21     1     1     2   501   511  2.467944896E+01  4.248399832E+01 -1.072452707E+01  5.028897290E+01  1.203954809E-06  0.00000E+00  9.000E+00
#rwgt            2          11   4.4464643182487692E-003           5      414107           0
</event>
<event>
      5   9999  3.79277E-02  8.85253E+01 -1.00000E+00  1.26256E-01
      21    -1     0     0   512   501  0.000000000E+00  0.000000000E+00  6.507205770E+01  6.507205770E+01  0.000000000E+00  0.00000E+00  9.000E+00
      21    -1     0     0   501   502  0.000000000E+00  0.000000000E+00 -2.154664113E+03  2.154664113E+03  0.000000000E+00  0.00000E+00  9.000E+00
      25     1     1     2     0     0  2.726008743E+01 -1.106855396E+02 -1.695854623E+03  1.704271781E+03  1.250000000E+02  0.00000E+00  9.000E+00
      25     1     1     2     0     0 -3.283316223E+01  1.990352841E+02 -3.296052568E+02  4.061498322E+02  1.250000000E+02  0.00000E+00  9.000E+00
      21     1     1     2   512   502  5.573074795E+00 -8.834974450E+01 -6.413217504E+01  1.093145571E+02  1.348699152E-06  0.00000E+00  9.000E+00
#rwgt            1           1   2.6739809923334031E-002           5      414352           0
</event>
<event>
      5   9999  3.79277E-02  6.94677E+01 -1.00000E+00  1.31389E-01
      21    -1     0     0   511   501  0.000000000E+00  0.000000000E+00  5.022661123E+02  5.022661123E+02  0.000000000E+00  0.00000E+00  9.000E+00
      21    -1     0     0   501   502  0.000000000E+00  0.000000000E+00 -1.942292321E+02  1.942292321E+02  0.000000000E+00  0.00000E+00  9.000E+00
      25     1     1     2     0     0  1.879037092E+02 -9.944155515E+01  3.159742394E+02  4.008255815E+02  1.250000000E+02  0.00000E+00  9.000E+00
      25     1     1     2     0     0 -1.223045746E+02  7.658287376E+01 -6.917866230E+01  2.030616479E+02  1.250000000E+02  0.00000E+00  9.000E+00
      21     1     1     2   511   502 -6.559913463E+01  2.285868139E+01  6.124130310E+01  9.260811511E+01  2.236564522E-06  0.00000E+00  9.000E+00
#rwgt            1           1   1.7416255194542155E-002           5      414546           0
</event>
<event>
      5   9999  3.79277E-02  4.35440E+01 -1.00000E+00  1.42590E-01
      21    -1     0     0   502   501  0.000000000E+00  0.000000000E+00  5.869102706E+01  5.869102706E+01  0.000000000E+00  0.00000E+00  9.000E+00
      21    -1     0     0   501   512  0.000000000E+00  0.000000000E+00 -8.441879038E+02  8.441879038E+02  0.000000000E+00  0.00000E+00  9.000E+00
      25     1     1     2     0     0  5.008807249E+01  1.101940489E+00 -3.866219692E+02  4.094039281E+02  1.250000000E+02  0.00000E+00  9.000E+00
      25     1     1     2     0     0 -6.934278947E+01  3.795363335E+01 -7.341871536E+01  1.651187709E+02  1.250000000E+02  0.00000E+00  9.000E+00
      21     1     1     2   502   512  1.925471698E+01 -3.905557384E+01 -3.254561922E+02  3.283562319E+02  3.814697266E-06  0.00000E+00  9.000E+00
#rwgt            1           1   4.9287809385634498E-002           5      414606           0
</event>
<event>
      5   9999  3.79277E-02  3.32125E+01 -1.00000E+00  1.50033E-01
      21    -1     0     0   502   511  0.000000000E+00  0.000000000E+00  1.185956094E+02  1.185956094E+02  0.000000000E+00  0.00000E+00  9.000E+00
      21    -1     0     0   501   502  0.000000000E+00  0.000000000E+00 -3.346068846E+02  3.346068846E+02  0.000000000E+00  0.00000E+00  9.000E+00
      25     1     1     2     0     0 -1.002830107E+02 -7.072237190E+00 -3.672657474E+01  1.645616604E+02  1.250000000E+02  0.00000E+00  9.000E+00
      25     1     1     2     0     0  1.024838878E+02  4.021173272E+01 -1.909947773E+02  2.534244181E+02  1.250000000E+02  0.00000E+00  9.000E+00
      21     1     1     2   501   511 -2.200877185E+00 -3.313949553E+01  1.171007694E+01  3.521641558E+01  6.529361695E-07  0.00000E+00  9.000E+00
#rwgt            1           1   4.3350195486246759E-002           5      414668           0
</event>
<event>
      5   9999  5.30740E-02  3.22457E+01 -1.00000E+00  1.50894E-01
      21    -1     0     0   502   501  0.000000000E+00  0.000000000E+00  3.304967631E+02  3.304967631E+02  0.000000000E+00  0.00000E+00  9.000E+00
      21    -1     0     0   512   502  0.000000000E+00  0.000000000E+00 -9.500432063E+02  9.500432063E+02  0.000000000E+00  0.00000E+00  9.000E+00
      25     1     1     2     0     0  4.661551291E+02 -4.934750143E+01 -6.022084366E+02  7.733148010E+02  1.250000000E+02  0.00000E+00  9.000E+00
      25     1     1     2     0     0 -4.415239625E+02  7.015831586E+01  1.093714259E+01  4.643384755E+02  1.250000000E+02  0.00000E+00  9.000E+00
      21     1     1     2   512   501 -2.463116658E+01 -2.081081443E+01 -2.827514917E+01  4.288669286E+01  3.371747881E-07  0.00000E+00  9.000E+00
#rwgt            1           1  0.52884806561462328                5      414756           0
</event>
<event>
      5   9999  3.79277E-02  2.27040E+01 -1.00000E+00  1.61950E-01
      21    -1     0     0   502   511  0.000000000E+00  0.000000000E+00  5.550146473E+02  5.550146473E+02  0.000000000E+00  0.00000E+00  9.000E+00
      21    -1     0     0   501   502  0.000000000E+00  0.000000000E+00 -2.410457080E+02  2.410457080E+02  0.000000000E+00  0.00000E+00  9.000E+00
      25     1     1     2     0     0  1.646660664E+02  2.362568914E+01 -1.639921938E+02  2.649368345E+02  1.250000000E+02  0.00000E+00  9.000E+00
      25     1     1     2     0     0 -1.578370027E+02 -4.527824677E+01  4.503144365E+02  4.953490999E+02  1.250000000E+02  0.00000E+00  9.000E+00
      21     1     1     2   501   511 -6.829063768E+00  2.165255763E+01  2.764669657E+01  3.577442096E+01  8.259061849E-07  0.00000E+00  9.000E+00
#rwgt            1           1   4.7070134263738218E-002           5      414929           0
</event>
<event>
      5   9999  3.79277E-02  9.97559E+01 -1.00000E+00  1.23876E-01
      21    -1     0     0   502   512  0.000000000E+00  0.000000000E+00  3.788287681E+02  3.788287681E+02  0.000000000E+00  0.00000E+00  9.000E+00
      21    -1     0     0   501   502  0.000000000E+00  0.000000000E+00 -3.890823593E+02  3.890823593E+02  0.000000000E+00  0.00000E+00  9.000E+00
      25     1     1     2     0     0 -1.418723177E+02  1.482621713E+02 -2.628977204E+02  3.561595673E+02  1.250000000E+02  0.00000E+00  9.000E+00
      25     1     1     2     0     0  4.499388742E+01 -1.720490271E+02  1.285688963E+02  2.525475772E+02  1.250000000E+02  0.00000E+00  9.000E+00
      21     1     1     2   501   512  9.687843030E+01  2.378685578E+01  1.240752329E+02  1.592039830E+02  2.697398305E-06  0.00000E+00  9.000E+00
#rwgt            2          11   2.0608407507317988E-003           5      415109           0
</event>
<event>
      5   9999  3.79277E-02  1.92784E+01 -1.00000E+00  1.67697E-01
      21    -1     0     0   502   501  0.000000000E+00  0.000000000E+00  2.786583353E+01  2.786583353E+01  0.000000000E+00  0.00000E+00  9.000E+00
      21    -1     0     0   501   511  0.000000000E+00  0.000000000E+00 -1.835656868E+03  1.835656868E+03  0.000000000E+00  0.00000E+00  9.000E+00
      25     1     1     2     0     0 -1.142322568E+02 -1.751861586E+01 -1.294043206E+03  1.305192985E+03  1.250000000E+02  0.00000E+00  9.000E+00
      25     1     1     2     0     0  9.659759463E+01  2.530796918E+01 -2.701535529E+02  3.139737740E+02  1.250000000E+02  0.00000E+00  9.000E+00
      21     1     1     2   502   511  1.763466214E+01 -7.789353319E+00 -2.435942760E+02  2.443559425E+02  3.814697266E-06  0.00000E+00  9.000E+00
#rwgt            1           1   3.6276813467774144E-002           5      415144           0
</event>
<event>
      5   9999  3.79277E-02  6.88156E+01 -1.00000E+00  1.31597E-01
      -2    -1     0     0     0   501  0.000000000E+00  0.000000000E+00  9.093488377E+02  9.093488377E+02  0.000000000E+00  0.00000E+00  9.000E+00
      21    -1     0     0   501   502  0.000000000E+00  0.000000000E+00 -7.130584500E+01  7.130584500E+01  0.000000000E+00  0.00000E+00  9.000E+00
      25     1     1     2     0     0 -1.274851037E+02 -2.806620629E+01  3.982829956E+02  4.373722764E+02  1.250000000E+02  0.00000E+00  9.000E+00
      25     1     1     2     0     0  5.870745988E+01  3.035060805E+01  5.387866589E+01  1.513130394E+02  1.250000000E+02  0.00000E+00  9.000E+00
      -2     1     1     2     0   502  6.877764385E+01 -2.284401762E+00  3.858813312E+02  3.919693669E+02  0.000000000E+00  0.00000E+00  9.000E+00
#rwgt            1           1   4.8400957801292770E-002           5      415445           0
</event>
<event>
      5   9999  3.79277E-02  5.07659E+01 -1.00000E+00  1.38700E-01
      21    -1     0     0   502   501  0.000000000E+00  0.000000000E+00  2.435279041E+02  2.435279041E+02  0.000000000E+00  0.00000E+00  9.000E+00
      21    -1     0     0   501   511  0.000000000E+00  0.000000000E+00 -4.083996902E+02  4.083996902E+02  0.000000000E+00  0.00000E+00  9.000E+00
      25     1     1     2     0     0  4.681089862E+01 -1.933973224E+02 -1.371934144E+02  2.721044239E+02  1.250000000E+02  0.00000E+00  9.000E+00
      25     1     1     2     0     0 -8.520873469E+01  2.266055028E+02  5.955349290E+01  2.788946053E+02  1.250000000E+02  0.00000E+00  9.000E+00
      21     1     1     2   502   511  3.839783607E+01 -3.320818036E+01 -8.723186461E+01  1.009285651E+02  0.000000000E+00  0.00000E+00  9.000E+00
#rwgt            1           1   3.9322779755782120E-002           5      415584           0
</event>
<event>
      5   9999  3.79277E-02  1.88443E+02  7.55638E-03  1.12597E-01
      -2    -1     0     0     0   501  0.000000000E+00  0.000000000E+00  1.240861473E+02  1.240861473E+02  0.000000000E+00  0.00000E+00  9.000E+00
       2    -1     0     0   502     0  0.000000000E+00  0.000000000E+00 -1.414691612E+03  1.414691612E+03  0.000000000E+00  0.00000E+00  9.000E+00
      25     1     1     2     0     0  7.006401921E+01  1.505598108E+01 -1.113568773E+03  1.122851754E+03  1.250000000E+02  0.00000E+00  9.000E+00
      25     1     1     2     0     0  5.582161007E+01  1.251708247E+02 -1.114150907E+02  2.163841721E+02  1.250000000E+02  0.00000E+00  9.000E+00
      21     1     1     2   502   501 -1.258856293E+02 -1.402268058E+02 -6.562160131E+01  1.995418334E+02  1.348699152E-06  0.00000E+00  9.000E+00
#rwgt            3           4   4.4358211181854947E-005           5      415749           0
</event>
<event>
      5   9999  3.79277E-02  1.51689E+01 -1.00000E+00  1.76927E-01
      21    -1     0     0   502   501  0.000000000E+00  0.000000000E+00  1.446612675E+02  1.446612675E+02  0.000000000E+00  0.00000E+00  9.000E+00
      21    -1     0     0   511   502  0.000000000E+00  0.000000000E+00 -1.065934583E+03  1.065934583E+03  0.000000000E+00  0.00000E+00  9.000E+00
      25     1     1     2     0     0 -5.942809749E+01  9.955376313E+01  1.329386950E+01  1.710098754E+02  1.250000000E+02  0.00000E+00  9.000E+00
      25     1     1     2     0     0  6.429430133E+01 -1.139209394E+02 -1.036269009E+02  2.085072474E+02  1.250000000E+02  0.00000E+00  9.000E+00
      21     1     1     2   511   501 -4.866203834E+00  1.436717632E+01 -8.309402838E+02  8.310787273E+02  1.078959322E-05  0.00000E+00  9.000E+00
#rwgt            1           1   2.1886675813075802E-002           5      415858           0
</event>
<event>
      5   9999  3.79277E-02  1.50962E+01 -1.00000E+00  1.77122E-01
      21    -1     0     0   512   501  0.000000000E+00  0.000000000E+00  1.279417707E+03  1.279417707E+03  0.000000000E+00  0.00000E+00  9.000E+00
      21    -1     0     0   501   502  0.000000000E+00  0.000000000E+00 -5.392058170E+01  5.392058170E+01  0.000000000E+00  0.00000E+00  9.000E+00
      25     1     1     2     0     0 -9.990903310E+01  5.468708610E+01  1.027737043E+03  1.041556970E+03  1.250000000E+02  0.00000E+00  9.000E+00
      25     1     1     2     0     0  8.896768820E+01 -6.508815455E+01  1.032090261E+02  1.960327025E+02  1.250000000E+02  0.00000E+00  9.000E+00
      21     1     1     2   512   502  1.094134490E+01  1.040106845E+01  9.455105717E+01  9.574861704E+01  1.907348633E-06  0.00000E+00  9.000E+00
#rwgt            1           1   4.5250286934419195E-002           5      416081           0
</event>
<event>
      5   9999  3.79277E-02  2.36230E+02 -1.00000E+00  1.09078E-01
      21    -1     0     0   502   501  0.000000000E+00  0.000000000E+00  7.690453043E+02  7.690453043E+02  0.000000000E+00  0.00000E+00  9.000E+00
      21    -1     0     0   511   502  0.000000000E+00  0.000000000E+00 -2.089934739E+02  2.089934739E+02  0.000000000E+00  0.00000E+00  9.000E+00
      25     1     1     2     0     0 -1.800651042E+02  1.752334165E+02  3.602741590E+02  4.566756635E+02  1.250000000E+02  0.00000E+00  9.000E+00
      25     1     1     2     0     0 -5.571533825E+01 -1.606650096E+02  1.915096112E+02  2.849883777E+02  1.250000000E+02  0.00000E+00  9.000E+00
      21     1     1     2   511   501  2.357804424E+02 -1.456840690E+01  8.268060347E+00  2.363747371E+02  4.839368613E-06  0.00000E+00  9.000E+00
#rwgt            1           1   4.1484291952753334E-002           5      416272           0
</event>
<event>
      5   9999  3.79277E-02  1.58302E+01 -1.00000E+00  1.75207E-01
      21    -1     0     0   502   512  0.000000000E+00  0.000000000E+00  6.168254000E+01  6.168254000E+01  0.000000000E+00  0.00000E+00  9.000E+00
      21    -1     0     0   501   502  0.000000000E+00  0.000000000E+00 -5.997994366E+02  5.997994366E+02  0.000000000E+00  0.00000E+00  9.000E+00
      25     1     1     2     0     0 -1.131660511E+02  6.924272421E+01 -3.277698043E+02  3.750455367E+02  1.250000000E+02  0.00000E+00  9.000E+00
      25     1     1     2     0     0  1.108375574E+02 -5.358467043E+01 -2.047719067E+02  2.696531379E+02  1.250000000E+02  0.00000E+00  9.000E+00
      21     1     1     2   501   512  2.328493697E+00 -1.565805378E+01 -5.575185659E+00  1.678330200E+01  1.884864366E-07  0.00000E+00  9.000E+00
#rwgt            1           1   3.8045334782655232E-002           5      416423           0
</event>
<event>
      5   9999  3.79277E-02  2.32008E+01 -1.00000E+00  1.61219E-01
      21    -1     0     0   502   501  0.000000000E+00  0.000000000E+00  2.578550383E+02  2.578550383E+02  0.000000000E+00  0.00000E+00  9.000E+00
      21    -1     0     0   501   511  0.000000000E+00  0.000000000E+00 -2.087284486E+02  2.087284486E+02  0.000000000E+00  0.00000E+00  9.000E+00
      25     1     1     2     0     0 -3.918647800E+00 -7.436390315E+01 -1.258806816E+02  1.923961847E+02  1.250000000E+02  0.00000E+00  9.000E+00
      25     1     1     2     0     0 -1.924349885E+01  7.570231434E+01  1.943908885E+02  2.439548528E+02  1.250000000E+02  0.00000E+00  9.000E+00
      21     1     1     2   502   511  2.316214665E+01 -1.338411181E+00 -1.938361720E+01  3.023244942E+01  2.384185791E-07  0.00000E+00  9.000E+00
#rwgt            1           1   4.5731011548143082E-002           5      416609           0
</event>
<event>
      5   9999  3.79277E-02  1.39970E+01 -1.00000E+00  1.80263E-01
      21    -1     0     0   502   501  0.000000000E+00  0.000000000E+00  3.977249061E+02  3.977249061E+02  0.000000000E+00  0.00000E+00  9.000E+00
      21    -1     0     0   512   502  0.000000000E+00  0.000000000E+00 -8.079074866E+01  8.079074866E+01  0.000000000E+00  0.00000E+00  9.000E+00
      25     1     1     2     0     0  1.703442254E+01 -4.791291503E+01  3.041375719E+02  3.327318464E+02  1.250000000E+02  0.00000E+00  9.000E+00
      25     1     1     2     0     0 -8.042146512E+00  3.718659706E+01  7.702489106E+00  1.308886835E+02  1.250000000E+02  0.00000E+00  9.000E+00
      21     1     1     2   512   501 -8.992276028E+00  1.072631797E+01  5.094096355E+00  1.489512481E+01  2.731427965E-07  0.00000E+00  9.000E+00
#rwgt            1           1   4.2157424119591516E-002           5      416850           0
</event>
<event>
      5   9999  3.79277E-02  3.10984E+01 -1.00000E+00  1.51963E-01
      21    -1     0     0   502   511  0.000000000E+00  0.000000000E+00  1.241243736E+03  1.241243736E+03  0.000000000E+00  0.00000E+00  9.000E+00
      21    -1     0     0   501   502  0.000000000E+00  0.000000000E+00 -4.837071125E+01  4.837071125E+01  0.000000000E+00  0.00000E+00  9.000E+00
      25     1     1     2     0     0  1.257717558E+02 -1.284757048E+02  3.650740542E+02  4.257095328E+02  1.250000000E+02  0.00000E+00  9.000E+00
      25     1     1     2     0     0 -9.622145527E+01  1.187861516E+02  5.500748256E+02  5.844450633E+02  1.250000000E+02  0.00000E+00  9.000E+00
      21     1     1     2   501   511 -2.955030050E+01  9.689553179E+00  2.777241446E+02  2.794598507E+02  5.394796609E-06  0.00000E+00  9.000E+00
#rwgt            1           1   3.0751718494636655E-002           5      417051           0
</event>
<event>
      5   9999  3.79277E-02  2.72234E+01 -1.00000E+00  1.56028E-01
      21    -1     0     0   512   501  0.000000000E+00  0.000000000E+00  7.122472702E+02  7.122472702E+02  0.000000000E+00  0.00000E+00  9.000E+00
      21    -1     0     0   501   502  0.000000000E+00  0.000000000E+00 -3.364262507E+02  3.364262507E+02  0.000000000E+00  0.00000E+00  9.000E+00
      25     1     1     2     0     0 -2.978971941E+02 -1.068190394E+02 -1.389932675E+01  3.405454988E+02  1.250000000E+02  0.00000E+00  9.000E+00
      25     1     1     2     0     0  3.166813487E+02  8.711445988E+01  3.589341419E+01  3.532553509E+02  1.250000000E+02  0.00000E+00  9.000E+00
      21     1     1     2   512   502 -1.878415458E+01  1.970457950E+01  3.538269321E+02  3.548726712E+02  5.394796609E-06  0.00000E+00  9.000E+00
#rwgt            1           1   5.2597689849000498E-002           5      417231           0
</event>
<event>
      5   9999  3.79277E-02  8.02293E+01 -1.00000E+00  1.28289E-01
      21    -1     0     0   502   501  0.000000000E+00  0.000000000E+00  9.937434772E+02  9.937434772E+02  0.000000000E+00  0.00000E+00  9.000E+00
      21    -1     0     0   501   511  0.000000000E+00  0.000000000E+00 -8.493294381E+01  8.493294381E+01  0.000000000E+00  0.00000E+00  9.000E+00
      25     1     1     2     0     0  1.799440943E+02 -1.258938526E+01  5.988433161E+02  6.377904726E+02  1.250000000E+02  0.00000E+00  9.000E+00
      25     1     1     2     0     0 -1.279300110E+02 -4.849481930E+01  3.094009077E+02  3.606546227E+02  1.250000000E+02  0.00000E+00  9.000E+00
      21     1     1     2   502   511 -5.201408332E+01  6.108420456E+01  5.663095601E-01  8.023132566E+01  4.492026655E-07  0.00000E+00  9.000E+00
#rwgt            1           1   3.7730856030924340E-002           5      417474           0
</event>
<event>
      5   9999  3.79277E-02  8.20859E+01 -1.00000E+00  1.27811E-01
      21    -1     0     0   512   501  0.000000000E+00  0.000000000E+00  5.005632513E+01  5.005632513E+01  0.000000000E+00  0.00000E+00  9.000E+00
      21    -1     0     0   501   502  0.000000000E+00  0.000000000E+00 -9.227326724E+02  9.227326724E+02  0.000000000E+00  0.00000E+00  9.000E+00
      25     1     1     2     0     0 -7.451482496E+01  3.407932570E+01 -1.723480960E+02  2.281287483E+02  1.250000000E+02  0.00000E+00  9.000E+00
      25     1     1     2     0     0 -1.871616055E+00 -4.025988336E+00 -6.096412862E+02  6.223401075E+02  1.250000000E+02  0.00000E+00  9.000E+00
      21     1     1     2   512   502  7.638644102E+01 -3.005333736E+01 -9.068696501E+01  1.223201418E+02  2.336015456E-06  0.00000E+00  9.000E+00
#rwgt            1           1   3.0720685879121062E-002           5      417567           0
</event>
<event>
      5   9999  3.79277E-02  6.19921E+01 -1.00000E+00  1.33950E-01
      21    -1     0     0   502   501  0.000000000E+00  0.000000000E+00  1.194069985E+02  1.194069985E+02  0.000000000E+00  0.00000E+00  9.000E+00
      21    -1     0     0   511   502  0.000000000E+00  0.000000000E+00 -1.164690412E+03  1.164690412E+03  0.000000000E+00  0.00000E+00  9.000E+00
      25     1     1     2     0     0  4.062360892E+01 -2.401639922E+02 -6.766020804E+02  7.298934141E+02  1.250000000E+02  0.00000E+00  9.000E+00
      25     1     1     2     0     0 -6.388696189E+01  1.827024159E+02 -5.826546675E+01  2.376585393E+02  1.250000000E+02  0.00000E+00  9.000E+00
      21     1     1     2   511   501  2.326335297E+01  5.746157629E+01 -3.104158668E+02  3.165454576E+02  3.814697266E-06  0.00000E+00  9.000E+00
#rwgt            1           1   4.2068125672330481E-002           5      417707           0
</event>
<event>
      5   9999  3.79277E-02  4.98806E+01 -1.00000E+00  1.39135E-01
      21    -1     0     0   512   501  0.000000000E+00  0.000000000E+00  6.314195012E+02  6.314195012E+02  0.000000000E+00  0.00000E+00  9.000E+00
      21    -1     0     0   501   502  0.000000000E+00  0.000000000E+00 -8.576221721E+01  8.576221721E+01  0.000000000E+00  0.00000E+00  9.000E+00
      25     1     1     2     0     0 -1.202965333E+02  1.300212026E+02  1.653407646E+02  2.726524115E+02  1.250000000E+02  0.00000E+00  9.000E+00
      25     1     1     2     0     0  9.659533408E+01 -8.613120024E+01  3.073259334E+02  3.561228322E+02  1.250000000E+02  0.00000E+00  9.000E+00
      21     1     1     2   512   502  2.370119922E+01 -4.389000232E+01  7.299058589E+01  8.840647475E+01  0.000000000E+00  0.00000E+00  9.000E+00
#rwgt            1           1   3.9783319414524676E-002           5      417915           0
</event>
<event>
      5   9999 -3.79277E-02  4.26736E+01 -1.00000E+00  1.43119E-01
       1    -1     0     0   502     0  0.000000000E+00  0.000000000E+00  1.191186520E+03  1.191186520E+03  0.000000000E+00  0.00000E+00  9.000E+00
      21    -1     0     0   501   502  0.000000000E+00  0.000000000E+00 -8.486097559E+01  8.486097559E+01  0.000000000E+00  0.00000E+00  9.000E+00
      25     1     1     2     0     0  4.590595690E+01  1.503049656E+02  1.223085739E+02  2.351240668E+02  1.250000000E+02  0.00000E+00  9.000E+00
      25     1     1     2     0     0 -2.482575867E+01 -1.874082976E+02  4.372564418E+02  4.925001363E+02  1.250000000E+02  0.00000E+00  9.000E+00
       1     1     1     2   501     0 -2.108019824E+01  3.710333202E+01  5.467605291E+02  5.484232929E+02  7.629394531E-06  0.00000E+00  9.000E+00
#rwgt            1           1 -0.18133464316374728                5      418030           0
</event>
<event>
      5   9999 -3.79277E-02  9.29915E+01 -1.00000E+00  1.25264E-01
      21    -1     0     0   502   511  0.000000000E+00  0.000000000E+00  1.548399382E+02  1.548399382E+02  0.000000000E+00  0.00000E+00  9.000E+00
      21    -1     0     0   501   502  0.000000000E+00  0.000000000E+00 -1.231632999E+03  1.231632999E+03  0.000000000E+00  0.00000E+00  9.000E+00
      25     1     1     2     0     0  2.715563718E+02  2.204774228E+02 -7.559847801E+02  8.423129732E+02  1.250000000E+02  0.00000E+00  9.000E+00
      25     1     1     2     0     0 -2.941279752E+02 -1.302668471E+02 -2.341669094E+02  4.170609772E+02  1.250000000E+02  0.00000E+00  9.000E+00
      21     1     1     2   501   511  2.257160347E+01 -9.021057563E+01 -8.664137147E+01  1.270989870E+02  0.000000000E+00  0.00000E+00  9.000E+00
#rwgt            1           1 -0.41605142843431286                5      418142           0
</event>
<event>
      5   9999  3.79277E-02  1.25024E+02 -1.00000E+00  1.19617E-01
      21    -1     0     0   512   501  0.000000000E+00  0.000000000E+00  3.101402803E+02  3.101402803E+02  0.000000000E+00  0.00000E+00  9.000E+00
      21    -1     0     0   501   502  0.000000000E+00  0.000000000E+00 -4.127739409E+02  4.127739409E+02  0.000000000E+00  0.00000E+00  9.000E+00
      25     1     1     2     0     0 -1.880622933E+02  1.191875776E+01 -2.200413942E+02  3.155197270E+02  1.250000000E+02  0.00000E+00  9.000E+00
      25     1     1     2     0     0  7.994033543E+01 -7.469275417E+01 -7.150961167E+01  1.808537788E+02  1.250000000E+02  0.00000E+00  9.000E+00
      21     1     1     2   512   502  1.081219579E+02  6.277399641E+01  1.889173452E+02  2.265407154E+02  4.672030912E-06  0.00000E+00  9.000E+00
#rwgt            1           1   4.5139338316478900E-002           5      418373           0
</event>
<event>
      5   9999  3.79277E-02  7.16404E+01 -1.00000E+00  1.30713E-01
       1    -1     0     0   502     0  0.000000000E+00  0.000000000E+00  1.214485996E+03  1.214485996E+03  0.000000000E+00  0.00000E+00  9.000E+00
      21    -1     0     0   501   502  0.000000000E+00  0.000000000E+00 -2.033776518E+02  2.033776518E+02  0.000000000E+00  0.00000E+00  9.000E+00
      25     1     1     2     0     0 -2.592732349E+02  1.656588488E+02  4.132699557E+01  3.346615979E+02  1.250000000E+02  0.00000E+00  9.000E+00
      25     1     1     2     0     0  2.649178790E+02 -2.370765133E+02  6.151140033E+02  7.213716052E+02  1.250000000E+02  0.00000E+00  9.000E+00
       1     1     1     2   501     0 -5.644644042E+00  7.141766442E+01  3.546673453E+02  3.618304446E+02  0.000000000E+00  0.00000E+00  9.000E+00
#rwgt            1           1   3.4324763747725029E-002           5      418466           0
</event>
<event>
      5   9999  3.79277E-02  5.50901E+01 -1.00000E+00  1.36715E-01
      21    -1     0     0   502   511  0.000000000E+00  0.000000000E+00  1.911974539E+02  1.911974539E+02  0.000000000E+00  0.00000E+00  9.000E+00
      21    -1     0     0   501   502  0.000000000E+00  0.000000000E+00 -3.054715941E+02  3.054715941E+02  0.000000000E+00  0.00000E+00  9.000E+00
      25     1     1     2     0     0  1.088823466E+02 -7.698063107E+01  1.767279480E+01  1.836265521E+02  1.250000000E+02  0.00000E+00  9.000E+00
      25     1     1     2     0     0 -1.091530766E+02  1.320700737E+02 -1.443776456E+02  2.565673460E+02  1.250000000E+02  0.00000E+00  9.000E+00
      21     1     1     2   501   511  2.707300115E-01 -5.508944261E+01  1.243071066E+01  5.647514984E+01  7.539457465E-07  0.00000E+00  9.000E+00
#rwgt            1           1   3.0411965395463810E-002           5      418549           0
</event>
<event>
      5   9999 -3.79277E-02  4.80022E+01 -1.00000E+00  1.40093E-01
      21    -1     0     0   502   512  0.000000000E+00  0.000000000E+00  1.614489833E+02  1.614489833E+02  0.000000000E+00  0.00000E+00  9.000E+00
      21    -1     0     0   501   502  0.000000000E+00  0.000000000E+00 -5.470845960E+02  5.470845960E+02  0.000000000E+00  0.00000E+00  9.000E+00
      25     1     1     2     0     0  5.181281618E+00 -1.451726972E+02 -3.815185449E+02  4.269465514E+02  1.250000000E+02  0.00000E+00  9.000E+00
      25     1     1     2     0     0 -3.266642843E+01  1.845272469E+02 -2.967146654E+01  2.272065059E+02  1.250000000E+02  0.00000E+00  9.000E+00
      21     1     1     2   501   512  2.748514681E+01 -3.935454973E+01  2.555439870E+01  5.438052200E+01  4.768371582E-07  0.00000E+00  9.000E+00
#rwgt            1           1  -8.1763144375093341E-002           5      418623           0
</event>
<event>
      5   9999  3.79277E-02  3.12614E+01 -1.00000E+00  1.51808E-01
      21    -1     0     0   511   501  0.000000000E+00  0.000000000E+00  1.018698357E+02  1.018698357E+02  0.000000000E+00  0.00000E+00  9.000E+00
      21    -1     0     0   501   502  0.000000000E+00  0.000000000E+00 -4.575642508E+02  4.575642508E+02  0.000000000E+00  0.00000E+00  9.000E+00
      25     1     1     2     0     0  9.820748997E+01  6.656557039E+01 -3.112959920E+02  3.558172015E+02  1.250000000E+02  0.00000E+00  9.000E+00
      25     1     1     2     0     0 -7.255775726E+01 -8.443645990E+01 -3.932409212E+01  1.719462943E+02  1.250000000E+02  0.00000E+00  9.000E+00
      21     1     1     2   511   502 -2.564973270E+01  1.787088951E+01 -5.074330938E+00  3.167059068E+01  6.664001875E-07  0.00000E+00  9.000E+00
#rwgt            1           1   3.6244424005845877E-002           5      418701           0
</event>
<event>
      5   9999  3.79277E-02  1.95683E+01 -1.00000E+00  1.67155E-01
      21    -1     0     0   502   512  0.000000000E+00  0.000000000E+00  5.574464609E+01  5.574464609E+01  0.000000000E+00  0.00000E+00  9.000E+00
      21    -1     0     0   501   502  0.000000000E+00  0.000000000E+00 -8.510963516E+02  8.510963516E+02  0.000000000E+00  0.00000E+00  9.000E+00
      25     1     1     2     0     0 -6.356569382E+01  1.190338099E+02 -5.096611993E+02  5.418387060E+02  1.250000000E+02  0.00000E+00  9.000E+00
      25     1     1     2     0     0  5.776739733E+01 -1.377233657E+02 -2.852928848E+02  3.454299173E+02  1.250000000E+02  0.00000E+00  9.000E+00
      21     1     1     2   501   512  5.798296492E+00  1.868955576E+01 -3.976214988E-01  1.957237440E+01  1.201370023E-07  0.00000E+00  9.000E+00
#rwgt            1           1   4.2970511443893238E-002           5      418906           0
</event>
<event>
      5   9999  3.79277E-02  6.17323E+01 -1.00000E+00  1.34046E-01
      21    -1     0     0   502   501  0.000000000E+00  0.000000000E+00  1.023358310E+02  1.023358310E+02  0.000000000E+00  0.00000E+00  9.000E+00
      21    -1     0     0   511   502  0.000000000E+00  0.000000000E+00 -9.429598847E+02  9.429598847E+02  0.000000000E+00  0.00000E+00  9.000E+00
      25     1     1     2     0     0  1.580615529E+02 -8.118417715E+01 -6.202582839E+02  6.572059524E+02  1.250000000E+02  0.00000E+00  9.000E+00
      25     1     1     2     0     0 -1.587640085E+02  1.429124653E+02 -1.325790832E+02  2.807707186E+02  1.250000000E+02  0.00000E+00  9.000E+00
      21     1     1     2   511   501  7.024555979E-01 -6.172828810E+01 -8.778668661E+01  1.073190446E+02  1.348699152E-06  0.00000E+00  9.000E+00
#rwgt            1           1   5.0235983475771039E-002           5      419095           0
</event>
<event>
      5   9999  3.79277E-02  7.17872E+01 -1.00000E+00  1.30669E-01
      21    -1     0     0   512   501  0.000000000E+00  0.000000000E+00  9.343631721E+02  9.343631721E+02  0.000000000E+00  0.00000E+00  9.000E+00
      21    -1     0     0   501   502  0.000000000E+00  0.000000000E+00 -7.801602112E+02  7.801602112E+02  0.000000000E+00  0.00000E+00  9.000E+00
      25     1     1     2     0     0 -2.989152160E+01  1.277225913E+02 -2.971421592E+02  3.480302087E+02  1.250000000E+02  0.00000E+00  9.000E+00
      25     1     1     2     0     0  1.008216981E+02 -1.387823499E+02 -4.314245546E+02  4.808094235E+02  1.250000000E+02  0.00000E+00  9.000E+00
      21     1     1     2   512   502 -7.093017645E+01  1.105975857E+01  8.827696748E+02  8.856837511E+02  1.078959322E-05  0.00000E+00  9.000E+00
#rwgt            1           1  0.19919795236040078                5      419274           0
</event>
<event>
      5   9999  3.79277E-02  2.66607E+01 -1.00000E+00  1.56687E-01
      21    -1     0     0   502   501  0.000000000E+00  0.000000000E+00  3.828484752E+02  3.828484752E+02  0.000000000E+00  0.00000E+00  9.000E+00
      21    -1     0     0   511   502  0.000000000E+00  0.000000000E+00 -4.230155112E+02  4.230155112E+02  0.000000000E+00  0.00000E+00  9.000E+00
      25     1     1     2     0     0  8.434130207E+01  2.513354393E+02  4.095806368E+00  2.931292103E+02  1.250000000E+02  0.00000E+00  9.000E+00
      25     1     1     2     0     0 -9.665985209E+01 -2.276913101E+02  1.510311942E+02  3.156293417E+02  1.250000000E+02  0.00000E+00  9.000E+00
      21     1     1     2   511   501  1.231855002E+01 -2.364412915E+01 -1.952940367E+02  1.971054344E+02  0.000000000E+00  0.00000E+00  9.000E+00
#rwgt            1           1   3.8152329281785330E-002           5      419329           0
</event>
<event>
      5   9999  3.79277E-02  4.57150E+01 -1.00000E+00  1.41333E-01
      21    -1     0     0   502   501  0.000000000E+00  0.000000000E+00  3.796914015E+02  3.796914015E+02  0.000000000E+00  0.00000E+00  9.000E+00
      21    -1     0     0   501   512  0.000000000E+00  0.000000000E+00 -7.739886358E+02  7.739886358E+02  0.000000000E+00  0.00000E+00  9.000E+00
      25     1     1     2     0     0  5.834346792E+01 -1.737433489E+02 -7.842113739E+01  2.352989297E+02  1.250000000E+02  0.00000E+00  9.000E+00
      25     1     1     2     0     0 -1.970995263E+01  1.493034201E+02  2.684771865E+02  3.322423711E+02  1.250000000E+02  0.00000E+00  9.000E+00
      21     1     1     2   502   512 -3.863351529E+01  2.443992878E+01 -5.843532834E+02  5.861387365E+02  1.078959322E-05  0.00000E+00  9.000E+00
#rwgt            1           1   4.7962476364899309E-002           5      419447           0
</event>
<event>
      5   9999  3.79277E-02  9.36362E+01 -1.00000E+00  1.25126E-01
      21    -1     0     0   511   501  0.000000000E+00  0.000000000E+00  2.027027268E+02  2.027027268E+02  0.000000000E+00  0.00000E+00  9.000E+00
      21    -1     0     0   501   502  0.000000000E+00  0.000000000E+00 -1.017159898E+03  1.017159898E+03  0.000000000E+00  0.00000E+00  9.000E+00
      25     1     1     2     0     0 -1.309119981E+02 -8.589301512E+01 -9.166976775E+02  9.383363967E+02  1.250000000E+02  0.00000E+00  9.000E+00
      25     1     1     2     0     0  3.741964864E+01  9.108177912E+01  2.698808042E+01  1.613985039E+02  1.250000000E+02  0.00000E+00  9.000E+00
      21     1     1     2   511   502  9.349234946E+01 -5.188764001E+00  7.525242551E+01  1.201277246E+02  1.907348633E-06  0.00000E+00  9.000E+00
#rwgt            1           1   3.6154355956104181E-002           5      419566           0
</event>
<event>
      5   9999  3.79277E-02  2.52236E+01 -1.00000E+00  1.58462E-01
      21    -1     0     0   502   501  0.000000000E+00  0.000000000E+00  8.133710797E+01  8.133710797E+01  0.000000000E+00  0.00000E+00  9.000E+00
      21    -1     0     0   501   512  0.000000000E+00  0.000000000E+00 -5.841979440E+02  5.841979440E+02  0.000000000E+00  0.00000E+00  9.000E+00
      25     1     1     2     0     0 -2.506875789E+01 -8.489385430E+00  7.917499714E+00  1.280164016E+02  1.250000000E+02  0.00000E+00  9.000E+00
      25     1     1     2     0     0  2.069127694E+01  3.333018772E+01 -4.808530534E+02  4.983810684E+02  1.250000000E+02  0.00000E+00  9.000E+00
      21     1     1     2   502   512  4.377480958E+00 -2.484080229E+01 -2.992528236E+01  3.913758196E+01  7.539457465E-07  0.00000E+00  9.000E+00
#rwgt            1           1   3.8251148844274420E-002           5      419653           0
</event>
<event>
      5   9999  3.79277E-02  2.85810E+01 -1.00000E+00  1.54516E-01
      21    -1     0     0   502   501  0.000000000E+00  0.000000000E+00  1.826293057E+02  1.826293057E+02  0.000000000E+00  0.00000E+00  9.000E+00
      21    -1     0     0   511   502  0.000000000E+00  0.000000000E+00 -3.768467065E+02  3.768467065E+02  0.000000000E+00  0.00000E+00  9.000E+00
      25     1     1     2     0     0 -1.296047109E+02  9.069916783E+01 -1.717561797E+02  2.648563863E+02  1.250000000E+02  0.00000E+00  9.000E+00
      25     1     1     2     0     0  1.561380647E+02 -8.007574022E+01  4.611628410E+01  2.203246039E+02  1.250000000E+02  0.00000E+00  9.000E+00
      21     1     1     2   511   501 -2.653335377E+01 -1.062342761E+01 -6.857750524E+01  7.429502205E+01  1.651812370E-06  0.00000E+00  9.000E+00
#rwgt            1           1   3.7826742475387629E-002           5      419853           0
</event>
<event>
      5   9999  3.79277E-02  4.51814E+01 -1.00000E+00  1.41634E-01
       2    -1     0     0   502     0  0.000000000E+00  0.000000000E+00  5.415245849E+02  5.415245849E+02  0.000000000E+00  0.00000E+00  9.000E+00
      21    -1     0     0   501   502  0.000000000E+00  0.000000000E+00 -8.724077199E+02  8.724077199E+02  0.000000000E+00  0.00000E+00  9.000E+00
      25     1     1     2     0     0  1.563577405E+02  5.802126976E+01 -1.100935528E+01  2.087113238E+02  1.250000000E+02  0.00000E+00  9.000E+00
      25     1     1     2     0     0 -1.749952993E+02 -1.686307456E+01 -7.460737019E+02  7.766329163E+02  1.250000000E+02  0.00000E+00  9.000E+00
       2     1     1     2   501     0  1.863755878E+01 -4.115819519E+01  4.261999221E+02  4.285880647E+02  7.629394531E-06  0.00000E+00  9.000E+00
#rwgt            1           1   2.6292694222211178E-002           5      419955           0
</event>
<event>
      5   9999  3.79277E-02  1.70344E+01 -1.00000E+00  1.72333E-01
      21    -1     0     0   502   511  0.000000000E+00  0.000000000E+00  2.719985714E+02  2.719985714E+02  0.000000000E+00  0.00000E+00  9.000E+00
      21    -1     0     0   501   502  0.000000000E+00  0.000000000E+00 -2.665681119E+02  2.665681119E+02  0.000000000E+00  0.00000E+00  9.000E+00
      25     1     1     2     0     0  2.611324861E+01 -1.935228312E+02  1.225755380E+02  2.622646573E+02  1.250000000E+02  0.00000E+00  9.000E+00
      25     1     1     2     0     0 -1.132892124E+01  1.850614730E+02 -1.264555267E+02  2.568892630E+02  1.250000000E+02  0.00000E+00  9.000E+00
      21     1     1     2   501   511 -1.478432737E+01  8.461358258E+00  9.310448263E+00  1.941276297E+01  2.665600750E-07  0.00000E+00  9.000E+00
#rwgt            1           1   3.4845527684196589E-002           5      420094           0
</event>
<event>
      5   9999  3.79277E-02  7.20060E+01 -1.00000E+00  1.30602E-01
      21    -1     0     0   502   501  0.000000000E+00  0.000000000E+00  1.591231515E+02  1.591231515E+02  0.000000000E+00  0.00000E+00  9.000E+00
      21    -1     0     0   512   502  0.000000000E+00  0.000000000E+00 -3.998103694E+02  3.998103694E+02  0.000000000E+00  0.00000E+00  9.000E+00
      25     1     1     2     0     0  1.077718291E+02  1.174739325E+02 -5.031649186E-01  2.025836744E+02  1.250000000E+02  0.00000E+00  9.000E+00
      25     1     1     2     0     0 -4.359006150E+01 -8.483090852E+01 -7.107421557E+01  1.725483139E+02  1.250000000E+02  0.00000E+00  9.000E+00
      21     1     1     2   512   501 -6.418176758E+01 -3.264302402E+01 -1.691098373E+02  1.838015326E+02  3.303624740E-06  0.00000E+00  9.000E+00
#rwgt            1           1   3.7537264528079865E-002           5      420266           0
</event>
<event>
      5   9999  3.79277E-02  1.29310E+01 -1.00000E+00  1.83680E-01
      21    -1     0     0   511   501  0.000000000E+00  0.000000000E+00  3.725020172E+02  3.725020172E+02  0.000000000E+00  0.00000E+00  9.000E+00
      21    -1     0     0   501   502  0.000000000E+00  0.000000000E+00 -4.129663010E+02  4.129663010E+02  0.000000000E+00  0.00000E+00  9.000E+00
      25     1     1     2     0     0 -2.380653032E+02 -1.689817815E+02 -2.423944165E+02  3.995121829E+02  1.250000000E+02  0.00000E+00  9.000E+00
      25     1     1     2     0     0  2.274958982E+02  1.764314381E+02  1.838963918E+02  3.637654725E+02  1.250000000E+02  0.00000E+00  9.000E+00
      21     1     1     2   511   502  1.056940508E+01 -7.449656623E+00  1.803374099E+01  2.219066294E+01  3.371747881E-07  0.00000E+00  9.000E+00
#rwgt            1           1   3.6027600679473970E-002           5      420380           0
</event>
<event>
      5   9999  3.79277E-02  3.31699E+00 -1.00000E+00  2.84229E-01
      21    -1     0     0   502   501  0.000000000E+00  0.000000000E+00  5.632876671E+01  5.632876671E+01  0.000000000E+00  0.00000E+00  9.000E+00
      21    -1     0     0   501   512  0.000000000E+00  0.000000000E+00 -6.888995899E+02  6.888995899E+02  0.000000000E+00  0.00000E+00  9.000E+00
      25     1     1     2     0     0 -4.625735409E+01 -1.384638585E+02 -2.615623491E+02  3.245794901E+02  1.250000000E+02  0.00000E+00  9.000E+00
      25     1     1     2     0     0  4.615953034E+01  1.417794097E+02 -3.608590354E+02  4.099711534E+02  1.250000000E+02  0.00000E+00  9.000E+00
      21     1     1     2   502   512  9.782374327E-02 -3.315551197E+00 -1.014943876E+01  1.067771307E+01  1.192092896E-07  0.00000E+00  9.000E+00
#rwgt            1           1   3.5493675602957277E-002           5      420778           0
</event>
<event>
      5   9999  3.79277E-02  6.59046E+00 -1.00000E+00  2.19322E-01
      21    -1     0     0   502   501  0.000000000E+00  0.000000000E+00  4.258585048E+02  4.258585048E+02  0.000000000E+00  0.00000E+00  9.000E+00
      21    -1     0     0   511   502  0.000000000E+00  0.000000000E+00 -2.861264799E+02  2.861264799E+02  0.000000000E+00  0.00000E+00  9.000E+00
      25     1     1     2     0     0 -2.086476484E+02 -1.685359332E+02 -9.713759642E+01  3.114464875E+02  1.250000000E+02  0.00000E+00  9.000E+00
      25     1     1     2     0     0  2.127004093E+02  1.737329802E+02  2.459748675E+02  3.892984048E+02  1.250000000E+02  0.00000E+00  9.000E+00
      21     1     1     2   511   501 -4.052760912E+00 -5.197047042E+00 -9.105246171E+00  1.124009238E+01  1.192092896E-07  0.00000E+00  9.000E+00
#rwgt            1           1   3.5123678136943649E-002           5      421221           0
</event>
<event>
      5   9999  3.79277E-02  1.38360E+01 -1.00000E+00  1.80753E-01
      21    -1     0     0   502   501  0.000000000E+00  0.000000000E+00  1.417353898E+02  1.417353898E+02  0.000000000E+00  0.00000E+00  9.000E+00
      21    -1     0     0   501   512  0.000000000E+00  0.000000000E+00 -3.834398347E+02  3.834398347E+02  0.000000000E+00  0.00000E+00  9.000E+00
      25     1     1     2     0     0 -7.119674581E+01 -9.205006343E+01  2.943184025E+01  1.733015407E+02  1.250000000E+02  0.00000E+00  9.000E+00
      25     1     1     2     0     0  7.047515885E+01  1.058672446E+02 -1.590871047E+02  2.389734889E+02  1.250000000E+02  0.00000E+00  9.000E+00
      21     1     1     2   502   512  7.215869558E-01 -1.381718121E+01 -1.120491804E+02  1.129001949E+02  0.000000000E+00  0.00000E+00  9.000E+00
#rwgt            1           1   3.1344144607894427E-002           5      421652           0
</event>
<event>
      5   9999 -3.79277E-02  2.56715E+01 -1.00000E+00  1.57893E-01
      21    -1     0     0   502   511  0.000000000E+00  0.000000000E+00  5.977830305E+02  5.977830305E+02  0.000000000E+00  0.00000E+00  9.000E+00
      21    -1     0     0   501   502  0.000000000E+00  0.000000000E+00 -8.228787080E+01  8.228787080E+01  0.000000000E+00  0.00000E+00  9.000E+00
      25     1     1     2     0     0  1.474719876E+02 -3.030664865E+01  1.628479398E+02  2.545799120E+02  1.250000000E+02  0.00000E+00  9.000E+00
      25     1     1     2     0     0 -1.260415727E+02  1.617289782E+01  1.888223356E+02  2.596669311E+02  1.250000000E+02  0.00000E+00  9.000E+00
      21     1     1     2   501   511 -2.143041486E+01  1.413375083E+01  1.638248843E+02  1.658240583E+02  3.303624740E-06  0.00000E+00  9.000E+00
#rwgt            1           1 -0.10977883901537568                5      422034           0
</event>
<event>
      5   9999  3.79277E-02  3.64361E+01 -1.00000E+00  1.47399E-01
      21    -1     0     0   512   501  0.000000000E+00  0.000000000E+00  1.068419806E+03  1.068419806E+03  0.000000000E+00  0.00000E+00  9.000E+00
      21    -1     0     0   501   502  0.000000000E+00  0.000000000E+00 -4.075301184E+01  4.075301184E+01  0.000000000E+00  0.00000E+00  9.000E+00
      25     1     1     2     0     0 -6.702882742E+01  1.648350027E+01  7.319503326E+02  7.457485225E+02  1.250000000E+02  0.00000E+00  9.000E+00
      25     1     1     2     0     0  1.034435701E+02 -1.523673560E+01  1.833882038E+02  2.453343914E+02  1.250000000E+02  0.00000E+00  9.000E+00
      21     1     1     2   512   502 -3.641474269E+01 -1.246764677E+00  1.123282574E+02  1.180899035E+02  1.348699152E-06  0.00000E+00  9.000E+00
#rwgt            1           1   4.1693033169247905E-002           5      422154           0
</event>
<event>
      5   9999  3.79277E-02  3.82100E+01 -1.00000E+00  1.46084E-01
      21    -1     0     0   511   501  0.000000000E+00  0.000000000E+00  1.539826820E+02  1.539826820E+02  0.000000000E+00  0.00000E+00  9.000E+00
      21    -1     0     0   501   502  0.000000000E+00  0.000000000E+00 -6.233691334E+02  6.233691334E+02  0.000000000E+00  0.00000E+00  9.000E+00
      25     1     1     2     0     0 -2.017451628E+02 -7.363323548E+01 -4.478779513E+02  5.121939314E+02  1.250000000E+02  0.00000E+00  9.000E+00
      25     1     1     2     0     0  1.635640629E+02  7.214611962E+01 -4.147779812E+01  2.220443041E+02  1.250000000E+02  0.00000E+00  9.000E+00
      21     1     1     2   511   502  3.818109992E+01  1.487115857E+00  1.996929808E+01  4.311357989E+01  8.596304120E-07  0.00000E+00  9.000E+00
#rwgt            1           1   3.0853482803258368E-002           5      422312           0
</event>
<event>
      5   9999  3.79277E-02  5.51018E+01 -1.00000E+00  1.36710E-01
      21    -1     0     0   502   512  0.000000000E+00  0.000000000E+00  3.139620007E+01  3.139620007E+01  0.000000000E+00  0.00000E+00  9.000E+00
      21    -1     0     0   501   502  0.000000000E+00  0.000000000E+00 -4.025995745E+03  4.025995745E+03  0.000000000E+00  0.00000E+00  9.000E+00
      25     1     1     2     0     0  1.000271926E+02  1.545781464E+02 -2.437164138E+03  2.447303389E+03  1.250000000E+02  0.00000E+00  9.000E+00
      25     1     1     2     0     0 -1.478134420E+02 -1.820133051E+02 -1.520988440E+03  1.544023475E+03  1.250000000E+02  0.00000E+00  9.000E+00
      21     1     1     2   501   512  4.778624930E+01  2.743515874E+01 -3.644696750E+01  6.606508153E+01  2.286830675E-06  0.00000E+00  9.000E+00
#rwgt            1           1   8.8684110279819862E-003           5      422459           0
</event>
<event>
      5   9999  3.79277E-02  1.82099E+01 -1.00000E+00  1.69801E-01
      21    -1     0     0   502   501  0.000000000E+00  0.000000000E+00  3.867269102E+02  3.867269102E+02  0.000000000E+00  0.00000E+00  9.000E+00
      21    -1     0     0   511   502  0.000000000E+00  0.000000000E+00 -4.183338131E+02  4.183338131E+02  0.000000000E+00  0.00000E+00  9.000E+00
      25     1     1     2     0     0  1.570094887E+02 -1.111091501E+02 -2.717820236E+02  3.556510806E+02  1.250000000E+02  0.00000E+00  9.000E+00
      25     1     1     2     0     0 -1.401403470E+02  1.042510295E+02  3.100625418E+02  3.771887775E+02  1.250000000E+02  0.00000E+00  9.000E+00
      21     1     1     2   511   501 -1.686914169E+01  6.858120532E+00 -6.988742107E+01  7.222086529E+01  1.651812370E-06  0.00000E+00  9.000E+00
#rwgt            1           1   1.7477831555086486E-002           5      422572           0
</event>
<event>
      5   9999  3.79277E-02  3.62275E+01 -1.00000E+00  1.47560E-01
      21    -1     0     0   502   512  0.000000000E+00  0.000000000E+00  5.009813974E+01  5.009813974E+01  0.000000000E+00  0.00000E+00  9.000E+00
      21    -1     0     0   501   502  0.000000000E+00  0.000000000E+00 -1.005733337E+03  1.005733337E+03  0.000000000E+00  0.00000E+00  9.000E+00
      25     1     1     2     0     0  1.383008437E+02  9.817321532E+01 -6.181403443E+02  6.530601724E+02  1.250000000E+02  0.00000E+00  9.000E+00
      25     1     1     2     0     0 -1.053725850E+02 -8.306814532E+01 -2.750051334E+02  3.305397432E+02  1.250000000E+02  0.00000E+00  9.000E+00
      21     1     1     2   501   512 -3.292825876E+01 -1.510507001E+01 -6.248971932E+01  7.223156087E+01  9.536743164E-07  0.00000E+00  9.000E+00
#rwgt            1           1   3.5062539501029923E-002           5      422826           0
</event>
<event>
      5   9999  3.79277E-02  3.57561E+01 -1.00000E+00  1.47927E-01
      21    -1     0     0   511   501  0.000000000E+00  0.000000000E+00  8.653490396E+01  8.653490396E+01  0.000000000E+00  0.00000E+00  9.000E+00
      21    -1     0     0   501   502  0.000000000E+00  0.000000000E+00 -1.021106673E+03  1.021106673E+03  0.000000000E+00  0.00000E+00  9.000E+00
      25     1     1     2     0     0  3.385754677E+01  4.558596831E+01  1.272683522E+01  1.378817838E+02  1.250000000E+02  0.00000E+00  9.000E+00
      25     1     1     2     0     0 -4.545163620E+01 -1.176178704E+01 -9.030586169E+02  9.128768024E+02  1.250000000E+02  0.00000E+00  9.000E+00
      21     1     1     2   511   502  1.159408943E+01 -3.382418127E+01 -4.423998742E+01  5.688299073E+01  4.768371582E-07  0.00000E+00  9.000E+00
#rwgt            1           1   4.4633502457952758E-002           5      422986           0
</event>
<event>
      5   9999  3.79277E-02  2.46480E+02 -1.00000E+00  1.08441E-01
       2    -1     0     0   502     0  0.000000000E+00  0.000000000E+00  9.277507633E+02  9.277507633E+02  0.000000000E+00  0.00000E+00  9.000E+00
      21    -1     0     0   501   502  0.000000000E+00  0.000000000E+00 -2.224655433E+02  2.224655433E+02  0.000000000E+00  0.00000E+00  9.000E+00
      25     1     1     2     0     0 -4.319231442E+01  9.669486629E+01 -3.911990156E+00  1.638773226E+02  1.250000000E+02  0.00000E+00  9.000E+00
      25     1     1     2     0     0  1.472311312E+02 -3.201408844E+02  2.080906761E+02  4.278947550E+02  1.250000000E+02  0.00000E+00  9.000E+00
       2     1     1     2   501     0 -1.040388168E+02  2.234460181E+02  5.011065341E+02  5.584442290E+02  5.394796609E-06  0.00000E+00  9.000E+00
#rwgt            1           1   6.4268726585698849E-002           5      423142           0
</event>
<event>
      5   9999  3.79277E-02  7.66869E+01 -1.00000E+00  1.29245E-01
      21    -1     0     0   502   501  0.000000000E+00  0.000000000E+00  1.892651756E+02  1.892651756E+02  0.000000000E+00  0.00000E+00  9.000E+00
      21    -1     0     0   501   511  0.000000000E+00  0.000000000E+00 -2.847580927E+02  2.847580927E+02  0.000000000E+00  0.00000E+00  9.000E+00
      25     1     1     2     0     0 -7.043794023E+01  2.473276241E+01 -7.683328549E+01  1.646255348E+02  1.250000000E+02  0.00000E+00  9.000E+00
      25     1     1     2     0     0  1.401918156E+02  7.130635695E+00  6.217163864E+01  1.979770284E+02  1.250000000E+02  0.00000E+00  9.000E+00
      21     1     1     2   502   511 -6.975387540E+01 -3.186339810E+01 -8.083127018E+01  1.114207050E+02  9.536743164E-07  0.00000E+00  9.000E+00
#rwgt            2          11   1.8321641604176001E-003           5      423179           0
</event>
<event>
      5   9999  3.79277E-02  2.90672E+01 -1.00000E+00  1.53999E-01
      21    -1     0     0   502   501  0.000000000E+00  0.000000000E+00  3.043300271E+02  3.043300271E+02  0.000000000E+00  0.00000E+00  9.000E+00
       1    -1     0     0   501     0  0.000000000E+00  0.000000000E+00 -2.029523507E+02  2.029523507E+02  0.000000000E+00  0.00000E+00  9.000E+00
      25     1     1     2     0     0 -1.649217395E+02 -7.629168908E+01  5.571153681E+01  2.274826968E+02  1.250000000E+02  0.00000E+00  9.000E+00
      25     1     1     2     0     0  1.779448484E+02  5.030509757E+01  7.788901814E+01  2.364036190E+02  1.250000000E+02  0.00000E+00  9.000E+00
       1     1     1     2   502     0 -1.302310886E+01  2.598659151E+01 -3.222287855E+01  4.339606209E+01  4.768371582E-07  0.00000E+00  9.000E+00
#rwgt            1           1   3.5037249517814235E-002           5      423304           0
</event>
<event>
      5   9999  3.79277E-02  1.57180E+01 -1.00000E+00  1.75492E-01
       1    -1     0     0   502     0  0.000000000E+00  0.000000000E+00  4.115555124E+02  4.115555124E+02  0.000000000E+00  0.00000E+00  9.000E+00
      21    -1     0     0   501   502  0.000000000E+00  0.000000000E+00 -3.488200735E+02  3.488200735E+02  0.000000000E+00  0.00000E+00  9.000E+00
      25     1     1     2     0     0  6.651916336E+01 -5.897515664E+01  1.792895579E+02  2.359504477E+02  1.250000000E+02  0.00000E+00  9.000E+00
      25     1     1     2     0     0 -7.946860681E+01  6.788391312E+01 -2.994213753E+02  3.408836240E+02  1.250000000E+02  0.00000E+00  9.000E+00
       1     1     1     2   501     0  1.294944345E+01 -8.908756488E+00  1.828672562E+02  1.835415142E+02  2.697398305E-06  0.00000E+00  9.000E+00
#rwgt            1           1   2.8641161352080172E-002           5      423459           0
</event>
<event>
      5   9999  3.79277E-02  8.47724E+01 -1.00000E+00  1.27143E-01
      21    -1     0     0   511   501  0.000000000E+00  0.000000000E+00  2.236715306E+02  2.236715306E+02  0.000000000E+00  0.00000E+00  9.000E+00
      21    -1     0     0   501   502  0.000000000E+00  0.000000000E+00 -5.088303842E+02  5.088303842E+02  0.000000000E+00  0.00000E+00  9.000E+00
      25     1     1     2     0     0 -1.288774789E+02  2.278034213E+02 -2.978908144E+01  2.915753637E+02  1.250000000E+02  0.00000E+00  9.000E+00
      25     1     1     2     0     0  1.660319796E+02 -1.516069051E+02 -2.454796368E+02  3.555791388E+02  1.250000000E+02  0.00000E+00  9.000E+00
      21     1     1     2   511   502 -3.715450062E+01 -7.619651624E+01 -9.890135410E+00  8.534741227E+01  1.567953400E-06  0.00000E+00  9.000E+00
#rwgt            1           1   3.2924515512307802E-002           5      423878           0
</event>
<event>
      5   9999  3.79277E-02  1.64581E+01 -1.00000E+00  1.73670E-01
      21    -1     0     0   512   501  0.000000000E+00  0.000000000E+00  2.276381777E+02  2.276381777E+02  0.000000000E+00  0.00000E+00  9.000E+00
      21    -1     0     0   501   502  0.000000000E+00  0.000000000E+00 -2.834668111E+02  2.834668111E+02  0.000000000E+00  0.00000E+00  9.000E+00
      25     1     1     2     0     0  1.368467496E+02 -1.035346436E+02  7.019029832E+01  2.236026236E+02  1.250000000E+02  0.00000E+00  9.000E+00
      25     1     1     2     0     0 -1.461893192E+02  1.170840539E+02 -1.406386010E+02  2.654886227E+02  1.250000000E+02  0.00000E+00  9.000E+00
      21     1     1     2   512   502  9.342569581E+00 -1.354941026E+01  1.461966931E+01  2.201374242E+01  4.129530925E-07  0.00000E+00  9.000E+00
#rwgt            1           1   4.8909057488711001E-002           5      423997           0
</event>
<event>
      5   9999  3.79277E-02  5.44161E+01 -1.00000E+00  1.37010E-01
      21    -1     0     0   511   501  0.000000000E+00  0.000000000E+00  1.159038650E+02  1.159038650E+02  0.000000000E+00  0.00000E+00  9.000E+00
      21    -1     0     0   501   502  0.000000000E+00  0.000000000E+00 -6.002876318E+02  6.002876318E+02  0.000000000E+00  0.00000E+00  9.000E+00
      25     1     1     2     0     0 -1.038077522E+02 -1.653861190E+02 -2.677897993E+02  3.542103815E+02  1.250000000E+02  0.00000E+00  9.000E+00
      25     1     1     2     0     0  1.305699814E+02  1.180057852E+02 -2.190078380E+02  3.075114932E+02  1.250000000E+02  0.00000E+00  9.000E+00
      21     1     1     2   511   502 -2.676222919E+01  4.738033387E+01  2.413870477E+00  5.446962199E+01  5.786564302E-07  0.00000E+00  9.000E+00
#rwgt            1           1   3.9737084963779479E-002           5      424222           0
</event>
<event>
      5   9999  3.79277E-02  9.42438E+01 -1.00000E+00  1.24997E-01
      21    -1     0     0   512   501  0.000000000E+00  0.000000000E+00  5.477006469E+02  5.477006469E+02  0.000000000E+00  0.00000E+00  9.000E+00
      21    -1     0     0   501   502  0.000000000E+00  0.000000000E+00 -4.480524086E+02  4.480524086E+02  0.000000000E+00  0.00000E+00  9.000E+00
      25     1     1     2     0     0  1.864884562E+02  3.208702837E+02 -1.059954382E+02  4.057039761E+02  1.250000000E+02  0.00000E+00  9.000E+00
      25     1     1     2     0     0 -1.313168970E+02 -2.444635659E+02 -5.820868797E+01  3.098706405E+02  1.250000000E+02  0.00000E+00  9.000E+00
      21     1     1     2   512   502 -5.517155914E+01 -7.640671788E+01  2.638523644E+02  2.801784390E+02  3.814697266E-06  0.00000E+00  9.000E+00
#rwgt            1           1   2.8359371900093643E-002           5      424366           0
</event>
<event>
      5   9999  3.79277E-02  2.79322E+00 -1.00000E+00  3.06609E-01
      21    -1     0     0   511   501  0.000000000E+00  0.000000000E+00  4.535164164E+02  4.535164164E+02  0.000000000E+00  0.00000E+00  9.000E+00
      21    -1     0     0   501   502  0.000000000E+00  0.000000000E+00 -1.831417663E+02  1.831417663E+02  0.000000000E+00  0.00000E+00  9.000E+00
      25     1     1     2     0     0  1.796610109E+02 -8.630232151E+01  3.141648781E+02  3.924929811E+02  1.250000000E+02  0.00000E+00  9.000E+00
      25     1     1     2     0     0 -1.782790663E+02  8.872972748E+01 -4.714481012E+01  2.397999649E+02  1.250000000E+02  0.00000E+00  9.000E+00
      21     1     1     2   511   502 -1.381944609E+00 -2.427405967E+00  3.354582049E+00  4.365236689E+00  5.960464478E-08  0.00000E+00  9.000E+00
#rwgt            1           1   5.7339604577177170E-002           5      424452           0
</event>
<event>
      5   9999 -3.79277E-02  3.80334E+01 -1.00000E+00  1.46211E-01
      21    -1     0     0   502   501  0.000000000E+00  0.000000000E+00  4.082289617E+02  4.082289617E+02  0.000000000E+00  0.00000E+00  9.000E+00
      21    -1     0     0   512   502  0.000000000E+00  0.000000000E+00 -4.099046553E+02  4.099046553E+02  0.000000000E+00  0.00000E+00  9.000E+00
      25     1     1     2     0     0 -3.017938666E+02 -1.934412677E+02  1.060586027E+02  3.941731715E+02  1.250000000E+02  0.00000E+00  9.000E+00
      25     1     1     2     0     0  2.719276231E+02  1.698924185E+02 -4.023727282E+01  3.464853593E+02  1.250000000E+02  0.00000E+00  9.000E+00
      21     1     1     2   512   501  2.986624345E+01  2.354884920E+01 -6.749702353E+01  7.747508620E+01  0.000000000E+00  0.00000E+00  9.000E+00
#rwgt            1           1 -0.31259650397967664                5      425077           0
</event>
<event>
      5   9999  3.79277E-02  5.34679E+00 -1.00000E+00  2.33538E-01
      21    -1     0     0   502   511  0.000000000E+00  0.000000000E+00  2.190517167E+02  2.190517167E+02  0.000000000E+00  0.00000E+00  9.000E+00
      21    -1     0     0   501   502  0.000000000E+00  0.000000000E+00 -1.950444318E+02  1.950444318E+02  0.000000000E+00  0.00000E+00  9.000E+00
      25     1     1     2     0     0 -1.132207273E+02  2.070498771E+01 -1.042795532E+02  1.993661326E+02  1.250000000E+02  0.00000E+00  9.000E+00
      25     1     1     2     0     0  1.080116301E+02 -2.191059364E+01  1.223423793E+02  2.067347192E+02  1.250000000E+02  0.00000E+00  9.000E+00
      21     1     1     2   501   511  5.209097182E+00  1.205605932E+00  5.944458823E+00  7.995296731E+00  1.192092896E-07  0.00000E+00  9.000E+00
#rwgt            1           1   3.0377094500620743E-002           5      425368           0
</event>
<event>
      5   9999  3.79277E-02  6.71113E+00 -1.00000E+00  2.18173E-01
      21    -1     0     0   512   501  0.000000000E+00  0.000000000E+00  3.913981294E+02  3.913981294E+02  0.000000000E+00  0.00000E+00  9.000E+00
      21    -1     0     0   501   502  0.000000000E+00  0.000000000E+00 -8.558806843E+01  8.558806843E+01  0.000000000E+00  0.00000E+00  9.000E+00
      25     1     1     2     0     0  4.288564646E+01  8.751084662E+01  2.355169526E+02  2.838847687E+02  1.250000000E+02  0.00000E+00  9.000E+00
      25     1     1     2     0     0 -4.872482316E+01 -9.081890150E+01  4.674947802E+01  1.686199720E+02  1.250000000E+02  0.00000E+00  9.000E+00
      21     1     1     2   512   502  5.839176698E+00  3.308054878E+00  2.354363040E+01  2.448145715E+01  3.371747881E-07  0.00000E+00  9.000E+00
#rwgt            1           1   9.4703057824095951E-002           5      425662           0
</event>
<event>
      5   9999  3.79277E-02  5.14870E+01 -1.00000E+00  1.38353E-01
      21    -1     0     0   511   501  0.000000000E+00  0.000000000E+00  1.978474938E+02  1.978474938E+02  0.000000000E+00  0.00000E+00  9.000E+00
      21    -1     0     0   501   502  0.000000000E+00  0.000000000E+00 -5.471541048E+02  5.471541048E+02  0.000000000E+00  0.00000E+00  9.000E+00
      25     1     1     2     0     0  5.018453510E+01 -1.126027947E+02 -4.741231550E+01  1.818538000E+02  1.250000000E+02  0.00000E+00  9.000E+00
      25     1     1     2     0     0 -1.015380664E+02  1.088975401E+02 -4.042532049E+02  4.485691774E+02  1.250000000E+02  0.00000E+00  9.000E+00
      21     1     1     2   511   502  5.135353134E+01  3.705254532E+00  1.023589094E+02  1.145786212E+02  2.697398305E-06  0.00000E+00  9.000E+00
#rwgt            2          11   1.3861790955644472E-003           5      426178           0
</event>
<event>
      5   9999  3.79277E-02  4.61923E+01 -1.00000E+00  1.41067E-01
       4    -1     0     0   502     0  0.000000000E+00  0.000000000E+00  2.793387234E+02  2.793387234E+02  0.000000000E+00  0.00000E+00  9.000E+00
      21    -1     0     0   501   502  0.000000000E+00  0.000000000E+00 -1.502452758E+03  1.502452758E+03  0.000000000E+00  0.00000E+00  9.000E+00
      25     1     1     2     0     0  1.374916249E+02 -7.243202749E+01 -4.121818713E+02  4.578965391E+02  1.250000000E+02  0.00000E+00  9.000E+00
      25     1     1     2     0     0 -1.431267085E+02  1.182793190E+02 -1.053475776E+03  1.076991858E+03  1.250000000E+02  0.00000E+00  9.000E+00
       4     1     1     2   501     0  5.635083583E+00 -4.584729150E+01  2.425436133E+02  2.469030835E+02  4.672030912E-06  0.00000E+00  9.000E+00
#rwgt            1           1   4.8283526899221517E-002           5      426213           0
</event>
<event>
      5   9999  3.79277E-02  4.31378E+01 -1.00000E+00  1.42835E-01
      21    -1     0     0   502   511  0.000000000E+00  0.000000000E+00  1.589307611E+02  1.589307611E+02  0.000000000E+00  0.00000E+00  9.000E+00
      21    -1     0     0   501   502  0.000000000E+00  0.000000000E+00 -6.471960714E+02  6.471960714E+02  0.000000000E+00  0.00000E+00  9.000E+00
      25     1     1     2     0     0  1.705170275E+02 -1.390142572E+02 -3.135300479E+02  4.028983883E+02  1.250000000E+02  0.00000E+00  9.000E+00
      25     1     1     2     0     0 -1.495535328E+02  1.767157365E+02 -2.183374082E+02  3.418931624E+02  1.250000000E+02  0.00000E+00  9.000E+00
      21     1     1     2   501   511 -2.096349476E+01 -3.770147927E+01  4.360214593E+01  6.133528170E+01  1.581489940E-06  0.00000E+00  9.000E+00
#rwgt            1           1   3.2056904854221427E-002           5      426315           0
</event>
<event>
      5   9999  3.79277E-02  3.93963E+01 -1.00000E+00  1.45251E-01
      21    -1     0     0   502   501  0.000000000E+00  0.000000000E+00  3.106390653E+02  3.106390653E+02  0.000000000E+00  0.00000E+00  9.000E+00
      21    -1     0     0   501   512  0.000000000E+00  0.000000000E+00 -8.688256555E+02  8.688256555E+02  0.000000000E+00  0.00000E+00  9.000E+00
      25     1     1     2     0     0 -4.169987609E+02  2.112156852E+02 -4.443833611E+02  6.569639289E+02  1.250000000E+02  0.00000E+00  9.000E+00
      25     1     1     2     0     0  4.135864844E+02 -1.719674182E+02 -8.274185456E+01  4.723322851E+02  1.250000000E+02  0.00000E+00  9.000E+00
      21     1     1     2   502   512  3.412276452E+00 -3.924826705E+01 -3.106137446E+01  5.016850686E+01  8.259061849E-07  0.00000E+00  9.000E+00
#rwgt            1           1   6.0448262374469867E-002           5      426429           0
</event>
<event>
      5   9999  3.79277E-02  1.17206E+02 -1.00000E+00  1.20804E-01
      21    -1     0     0   502   501  0.000000000E+00  0.000000000E+00  1.722377947E+03  1.722377947E+03  0.000000000E+00  0.00000E+00  9.000E+00
       2    -1     0     0   501     0  0.000000000E+00  0.000000000E+00 -6.362860269E+02  6.362860269E+02  0.000000000E+00  0.00000E+00  9.000E+00
      25     1     1     2     0     0  4.087969666E+02 -6.681193895E+00  7.991569953E+02  9.063313420E+02  1.250000000E+02  0.00000E+00  9.000E+00
      25     1     1     2     0     0 -3.312468874E+02  9.456257457E+01  8.244303622E+02  9.022067407E+02  1.250000000E+02  0.00000E+00  9.000E+00
       2     1     1     2   502     0 -7.755007919E+01 -8.788138068E+01 -5.374954370E+02  5.501258917E+02  0.000000000E+00  0.00000E+00  9.000E+00
#rwgt            1           1   3.1225474949688015E-002           5      426575           0
</event>
<event>
      5   9999  3.79277E-02  7.79903E+01 -1.00000E+00  1.28887E-01
      21    -1     0     0   502   511  0.000000000E+00  0.000000000E+00  5.230544069E+01  5.230544069E+01  0.000000000E+00  0.00000E+00  9.000E+00
      21    -1     0     0   501   502  0.000000000E+00  0.000000000E+00 -9.087687703E+02  9.087687703E+02  0.000000000E+00  0.00000E+00  9.000E+00
      25     1     1     2     0     0  1.061924912E+02  4.389546729E+01 -5.565560623E+02  5.818791178E+02  1.250000000E+02  0.00000E+00  9.000E+00
      25     1     1     2     0     0 -3.478982698E+01 -7.526669271E+01 -2.292142355E+02  2.739335191E+02  1.250000000E+02  0.00000E+00  9.000E+00
      21     1     1     2   501   511 -7.140266426E+01  3.137122542E+01 -7.069303178E+01  1.052615741E+02  1.348699152E-06  0.00000E+00  9.000E+00
#rwgt            1           1   4.3348359985681102E-002           5      426692           0
</event>
<event>
      5   9999  3.79277E-02  2.49730E+01 -1.00000E+00  1.58786E-01
      21    -1     0     0   502   501  0.000000000E+00  0.000000000E+00  1.344917753E+02  1.344917753E+02  0.000000000E+00  0.00000E+00  9.000E+00
      21    -1     0     0   501   512  0.000000000E+00  0.000000000E+00 -4.907749492E+02  4.907749492E+02  0.000000000E+00  0.00000E+00  9.000E+00
      25     1     1     2     0     0  8.100179941E+01  2.714201900E+01  4.908059825E+01  1.591599379E+02  1.250000000E+02  0.00000E+00  9.000E+00
      25     1     1     2     0     0 -9.260230251E+01 -5.026898923E+00 -1.742264831E+02  2.336243214E+02  1.250000000E+02  0.00000E+00  9.000E+00
      21     1     1     2   502   512  1.160050310E+01 -2.211512008E+01 -2.311372891E+02  2.324824652E+02  2.697398305E-06  0.00000E+00  9.000E+00
#rwgt            1           1   4.3237041959560754E-002           5      426756           0
</event>
<event>
      5   9999  3.79277E-02  2.09617E+01 -1.00000E+00  1.64704E-01
      21    -1     0     0   502   501  0.000000000E+00  0.000000000E+00  1.030950241E+02  1.030950241E+02  0.000000000E+00  0.00000E+00  9.000E+00
      21    -1     0     0   501   511  0.000000000E+00  0.000000000E+00 -4.335414935E+02  4.335414935E+02  0.000000000E+00  0.00000E+00  9.000E+00
      25     1     1     2     0     0 -4.516511387E+01 -6.953322563E+01 -3.844592987E+00  1.500484517E+02  1.250000000E+02  0.00000E+00  9.000E+00
      25     1     1     2     0     0  6.551141620E+01  6.449124087E+01 -1.764040431E+02  2.349345701E+02  1.250000000E+02  0.00000E+00  9.000E+00
      21     1     1     2   502   511 -2.034630233E+01  5.041984759E+00 -1.501978334E+02  1.516534958E+02  1.907348633E-06  0.00000E+00  9.000E+00
#rwgt            1           1   3.0725258892108847E-002           5      426902           0
</event>
<event>
      5   9999  3.79277E-02  3.82128E+01 -1.00000E+00  1.46082E-01
      21    -1     0     0   502   512  0.000000000E+00  0.000000000E+00  1.746708591E+02  1.746708591E+02  0.000000000E+00  0.00000E+00  9.000E+00
      21    -1     0     0   501   502  0.000000000E+00  0.000000000E+00 -4.427162838E+02  4.427162838E+02  0.000000000E+00  0.00000E+00  9.000E+00
      25     1     1     2     0     0  1.891686254E+01  8.706548614E+01  2.282918547E+01  1.551915535E+02  1.250000000E+02  0.00000E+00  9.000E+00
      25     1     1     2     0     0  6.269601349E+00 -5.832774118E+01 -3.586928024E+02  3.843526503E+02  1.250000000E+02  0.00000E+00  9.000E+00
      21     1     1     2   501   512 -2.518646389E+01 -2.873774495E+01  6.781819232E+01  7.784293904E+01  1.348699152E-06  0.00000E+00  9.000E+00
#rwgt            1           1   3.6025429256585806E-002           5      427014           0
</event>
<event>
      5   9999  3.79277E-02  1.46070E+02 -1.00000E+00  1.16852E-01
      21    -1     0     0   511   501  0.000000000E+00  0.000000000E+00  6.902528756E+02  6.902528756E+02  0.000000000E+00  0.00000E+00  9.000E+00
      21    -1     0     0   501   502  0.000000000E+00  0.000000000E+00 -1.873253682E+02  1.873253682E+02  0.000000000E+00  0.00000E+00  9.000E+00
      25     1     1     2     0     0  1.804570569E+02 -6.828716070E+00  3.286373258E+01  2.220729737E+02  1.250000000E+02  0.00000E+00  9.000E+00
      25     1     1     2     0     0 -2.044989085E+02  1.509067150E+02  1.943743867E+02  3.435098869E+02  1.250000000E+02  0.00000E+00  9.000E+00
      21     1     1     2   511   502  2.404185160E+01 -1.440779990E+02  2.756893881E+02  3.119953832E+02  3.814697266E-06  0.00000E+00  9.000E+00
#rwgt            1           1   2.8572679564513696E-002           5      427181           0
</event>
<event>
      5   9999  3.79277E-02  5.59041E+01 -1.00000E+00  1.36365E-01
      21    -1     0     0   502   501  0.000000000E+00  0.000000000E+00  1.985798838E+02  1.985798838E+02  0.000000000E+00  0.00000E+00  9.000E+00
      21    -1     0     0   501   512  0.000000000E+00  0.000000000E+00 -8.435784802E+02  8.435784802E+02  0.000000000E+00  0.00000E+00  9.000E+00
      25     1     1     2     0     0  2.788814607E+02 -2.463807438E+02 -1.939559015E+02  4.378609731E+02  1.250000000E+02  0.00000E+00  9.000E+00
      25     1     1     2     0     0 -2.504628337E+02  1.982387764E+02 -3.583726913E+02  4.960707907E+02  1.250000000E+02  0.00000E+00  9.000E+00
      21     1     1     2   502   512 -2.841862699E+01  4.814196744E+01 -9.267000371E+01  1.082266001E+02  0.000000000E+00  0.00000E+00  9.000E+00
#rwgt            1           1   3.6814694774451040E-002           5      427221           0
</event>
<event>
      5   9999  3.79277E-02  5.99810E+01 -1.00000E+00  1.34711E-01
      21    -1     0     0   502   501  0.000000000E+00  0.000000000E+00  8.428204011E+01  8.428204011E+01  0.000000000E+00  0.00000E+00  9.000E+00
      21    -1     0     0   511   502  0.000000000E+00  0.000000000E+00 -8.602998915E+02  8.602998915E+02  0.000000000E+00  0.00000E+00  9.000E+00
      25     1     1     2     0     0  1.266628544E+02  6.478719735E+01 -4.877074866E+02  5.231868233E+02  1.250000000E+02  0.00000E+00  9.000E+00
      25     1     1     2     0     0 -1.783195116E+02 -9.527183788E+01 -1.821554778E+02  2.994665080E+02  1.250000000E+02  0.00000E+00  9.000E+00
      21     1     1     2   511   501  5.165665719E+01  3.048464053E+01 -1.061548870E+02  1.219286003E+02  1.348699152E-06  0.00000E+00  9.000E+00
#rwgt            1           1   1.3106256695594070E-002           5      427354           0
</event>
<event>
      5   9999  3.79277E-02  5.14975E+01 -1.00000E+00  1.38348E-01
      21    -1     0     0   502   501  0.000000000E+00  0.000000000E+00  5.265718652E+01  5.265718652E+01  0.000000000E+00  0.00000E+00  9.000E+00
      21    -1     0     0   501   512  0.000000000E+00  0.000000000E+00 -1.215599851E+03  1.215599851E+03  0.000000000E+00  0.00000E+00  9.000E+00
      25     1     1     2     0     0  2.762162290E+01 -9.295820557E+01 -4.597428072E+02  4.862022529E+02  1.250000000E+02  0.00000E+00  9.000E+00
      25     1     1     2     0     0  2.112222836E+01  1.095724163E+02 -1.453103521E+02  2.217935107E+02  1.250000000E+02  0.00000E+00  9.000E+00
      21     1     1     2   502   512 -4.874385126E+01 -1.661421072E+01 -5.578895050E+02  5.602612737E+02  0.000000000E+00  0.00000E+00  9.000E+00
#rwgt            1           1   2.7432748288467149E-002           5      427498           0
</event>
<event>
      5   9999 -3.79277E-02  1.35330E+02 -1.00000E+00  1.18193E-01
      21    -1     0     0   502   501  0.000000000E+00  0.000000000E+00  6.632833059E+02  6.632833059E+02  0.000000000E+00  0.00000E+00  9.000E+00
      21    -1     0     0   511   502  0.000000000E+00  0.000000000E+00 -1.278866482E+02  1.278866482E+02  0.000000000E+00  0.00000E+00  9.000E+00
      25     1     1     2     0     0 -7.204754646E+01 -9.637399799E+01  1.405485573E+02  2.232883638E+02  1.250000000E+02  0.00000E+00  9.000E+00
      25     1     1     2     0     0  7.054874500E+01  2.316958731E+02  2.733824710E+02  3.860350742E+02  1.250000000E+02  0.00000E+00  9.000E+00
      21     1     1     2   511   501  1.498801454E+00 -1.353218751E+02  1.214656295E+02  1.818465162E+02  4.473129043E-06  0.00000E+00  9.000E+00
#rwgt            1           1  -9.1794827773197613E-002           5      427698           0
</event>
<event>
      5   9999  3.79277E-02  8.73313E+01 -1.00000E+00  1.26533E-01
      21    -1     0     0   512   501  0.000000000E+00  0.000000000E+00  4.102514059E+02  4.102514059E+02  0.000000000E+00  0.00000E+00  9.000E+00
      21    -1     0     0   501   502  0.000000000E+00  0.000000000E+00 -2.698380647E+02  2.698380647E+02  0.000000000E+00  0.00000E+00  9.000E+00
      25     1     1     2     0     0 -2.101298240E+02  4.050615171E+01 -5.075909615E+01  2.529758429E+02  1.250000000E+02  0.00000E+00  9.000E+00
      25     1     1     2     0     0  2.478827033E+02  3.824333099E+01  9.196164849E+01  2.949412344E+02  1.250000000E+02  0.00000E+00  9.000E+00
      21     1     1     2   512   502 -3.775287927E+01 -7.874948269E+01  9.921078884E+01  1.321723933E+02  0.000000000E+00  0.00000E+00  9.000E+00
#rwgt            1           1   4.4446848800488770E-002           5      427744           0
</event>
<event>
      5   9999  3.79277E-02  5.77192E+01 -1.00000E+00  1.35609E-01
       1    -1     0     0   502     0  0.000000000E+00  0.000000000E+00  4.750424857E+03  4.750424857E+03  0.000000000E+00  0.00000E+00  9.000E+00
      21    -1     0     0   501   502  0.000000000E+00  0.000000000E+00 -1.197649644E+03  1.197649644E+03  0.000000000E+00  0.00000E+00  9.000E+00
      25     1     1     2     0     0  1.011080232E+02  2.743066727E+01 -1.124207573E+03  1.135976647E+03  1.250000000E+02  0.00000E+00  9.000E+00
      25     1     1     2     0     0 -1.201874777E+02  2.704396328E+01  4.690876693E+01  1.816640806E+02  1.250000000E+02  0.00000E+00  9.000E+00
       1     1     1     2   501     0  1.907945454E+01 -5.447463055E+01  4.630074019E+03  4.630433774E+03  0.000000000E+00  0.00000E+00  9.000E+00
#rwgt            1           1   3.9198682462924121E-002           5      427948           0
</event>
<event>
      5   9999  3.79277E-02  3.96204E+01 -1.00000E+00  1.45097E-01
      21    -1     0     0   502   501  0.000000000E+00  0.000000000E+00  1.489422931E+02  1.489422931E+02  0.000000000E+00  0.00000E+00  9.000E+00
      21    -1     0     0   511   502  0.000000000E+00  0.000000000E+00 -5.703887925E+02  5.703887925E+02  0.000000000E+00  0.00000E+00  9.000E+00
      25     1     1     2     0     0 -1.638479440E+02  3.267723775E+01 -2.445242153E+02  3.214514621E+02  1.250000000E+02  0.00000E+00  9.000E+00
      25     1     1     2     0     0  1.244580785E+02 -2.840934586E+01  3.518930951E+01  1.820994007E+02  1.250000000E+02  0.00000E+00  9.000E+00
      21     1     1     2   511   501  3.938986550E+01 -4.267891894E+00 -2.121115936E+02  2.157802228E+02  0.000000000E+00  0.00000E+00  9.000E+00
#rwgt            1           1   5.3216267794942429E-002           5      428046           0
</event>
<event>
      5   9999  3.79277E-02  5.33752E+01 -1.00000E+00  1.37476E-01
      -1    -1     0     0     0   501  0.000000000E+00  0.000000000E+00  2.120178213E+02  2.120178213E+02  0.000000000E+00  0.00000E+00  9.000E+00
      21    -1     0     0   501   502  0.000000000E+00  0.000000000E+00 -1.438914390E+03  1.438914390E+03  0.000000000E+00  0.00000E+00  9.000E+00
      25     1     1     2     0     0  3.802050854E+01  6.411578683E+01 -9.554023693E+01  1.740957497E+02  1.250000000E+02  0.00000E+00  9.000E+00
      25     1     1     2     0     0 -1.894299414E+01 -1.139651449E+02 -1.294263623E+03  1.305408065E+03  1.250000000E+02  0.00000E+00  9.000E+00
      -1     1     1     2     0   502 -1.907751440E+01  4.984935805E+01  1.629072904E+02  1.714283971E+02  2.697398305E-06  0.00000E+00  9.000E+00
#rwgt            1           1   3.6569469365166696E-002           5      428365           0
</event>
<event>
      5   9999 -3.79277E-02  6.63389E+01 -1.00000E+00  1.32413E-01
      21    -1     0     0   511   501  0.000000000E+00  0.000000000E+00  1.207727222E+02  1.207727222E+02  0.000000000E+00  0.00000E+00  9.000E+00
      21    -1     0     0   501   502  0.000000000E+00  0.000000000E+00 -6.820558742E+02  6.820558742E+02  0.000000000E+00  0.00000E+00  9.000E+00
      25     1     1     2     0     0 -1.054659484E+02 -1.044551712E+02 -1.193707236E+02  2.278339718E+02  1.250000000E+02  0.00000E+00  9.000E+00
      25     1     1     2     0     0  1.559206048E+02  6.138341634E+01 -4.608123302E+02  5.060159705E+02  1.250000000E+02  0.00000E+00  9.000E+00
      21     1     1     2   511   502 -5.045465641E+01  4.307175489E+01  1.889990175E+01  6.897865400E+01  9.536743164E-07  0.00000E+00  9.000E+00
#rwgt            1           1  -9.5866478963880827E-002           5      428458           0
</event>
<event>
      5   9999  3.79277E-02  9.88245E+01 -1.00000E+00  1.24059E-01
      21    -1     0     0   502   512  0.000000000E+00  0.000000000E+00  2.223055608E+02  2.223055608E+02  0.000000000E+00  0.00000E+00  9.000E+00
      21    -1     0     0   501   502  0.000000000E+00  0.000000000E+00 -2.070012789E+02  2.070012789E+02  0.000000000E+00  0.00000E+00  9.000E+00
      25     1     1     2     0     0 -2.911525825E+01  1.050110987E+02  4.329738237E+01  1.713904677E+02  1.250000000E+02  0.00000E+00  9.000E+00
      25     1     1     2     0     0 -1.177811478E+01 -1.504437359E+01 -7.653934090E+01  1.478117988E+02  1.250000000E+02  0.00000E+00  9.000E+00
      21     1     1     2   501   512  4.089337303E+01 -8.996672509E+01  4.854624039E+01  1.101045732E+02  1.168007728E-06  0.00000E+00  9.000E+00
#rwgt            1           1  0.13406794427568663                5      428572           0
</event>
<event>
      5   9999  3.79277E-02  2.55212E+01 -1.00000E+00  1.58083E-01
      21    -1     0     0   502   501  0.000000000E+00  0.000000000E+00  4.954018333E+02  4.954018333E+02  0.000000000E+00  0.00000E+00  9.000E+00
      21    -1     0     0   501   511  0.000000000E+00  0.000000000E+00 -8.543773627E+02  8.543773627E+02  0.000000000E+00  0.00000E+00  9.000E+00
      25     1     1     2     0     0  1.267528718E+02 -8.142594166E+01  2.563736145E+02  3.225661246E+02  1.250000000E+02  0.00000E+00  9.000E+00
      25     1     1     2     0     0 -1.308771539E+02  1.066117310E+02  1.521033757E+02  2.593363212E+02  1.250000000E+02  0.00000E+00  9.000E+00
      21     1     1     2   502   511  4.124282039E+00 -2.518578937E+01 -7.674525197E+02  7.678767503E+02  1.078959322E-05  0.00000E+00  9.000E+00
#rwgt            1           1   2.6305433840122548E-002           5      428645           0
</event>
<event>
      5   9999  3.79277E-02  4.17388E+01 -1.00000E+00  1.43703E-01
      21    -1     0     0   502   512  0.000000000E+00  0.000000000E+00  4.166283695E+02  4.166283695E+02  0.000000000E+00  0.00000E+00  9.000E+00
      21    -1     0     0   501   502  0.000000000E+00  0.000000000E+00 -1.808519144E+02  1.808519144E+02  0.000000000E+00  0.00000E+00  9.000E+00
      25     1     1     2     0     0 -1.003447147E+02  5.922229071E+01 -2.563398006E+01  1.727959560E+02  1.250000000E+02  0.00000E+00  9.000E+00
      25     1     1     2     0     0  1.146066035E+02 -1.999567130E+01  1.132164313E+01  1.711364369E+02  1.250000000E+02  0.00000E+00  9.000E+00
      21     1     1     2   501   512 -1.426188887E+01 -3.922661941E+01  2.500887920E+02  2.535478910E+02  0.000000000E+00  0.00000E+00  9.000E+00
#rwgt            1           1   3.7414570997072530E-002           5      428854           0
</event>
<event>
      5   9999  3.79277E-02  3.16468E+01 -1.00000E+00  1.51445E-01
       2    -1     0     0   502     0  0.000000000E+00  0.000000000E+00  2.201842379E+03  2.201842379E+03  0.000000000E+00  0.00000E+00  9.000E+00
      21    -1     0     0   501   502  0.000000000E+00  0.000000000E+00 -8.067989643E+01  8.067989643E+01  0.000000000E+00  0.00000E+00  9.000E+00
      25     1     1     2     0     0  3.495111027E+02 -2.674568102E+01  1.345719013E+03  1.396229925E+03  1.250000000E+02  0.00000E+00  9.000E+00
      25     1     1     2     0     0 -3.188100449E+02  1.906661820E+01  4.843521412E+02  5.934857853E+02  1.250000000E+02  0.00000E+00  9.000E+00
       2     1     1     2   501     0 -3.070105784E+01  7.679062815E+00  2.910913287E+02  2.928065652E+02  3.814697266E-06  0.00000E+00  9.000E+00
#rwgt            1           1   4.7753383461028469E-002           5      429024           0
</event>
<event>
      5   9999  3.79277E-02  1.11144E+02 -1.00000E+00  1.21799E-01
      21    -1     0     0   502   501  0.000000000E+00  0.000000000E+00  1.805496475E+02  1.805496475E+02  0.000000000E+00  0.00000E+00  9.000E+00
      21    -1     0     0   501   511  0.000000000E+00  0.000000000E+00 -4.282769819E+02  4.282769819E+02  0.000000000E+00  0.00000E+00  9.000E+00
      25     1     1     2     0     0  1.456827411E+02  1.651421188E+02 -9.679721850E+01  2.710905421E+02  1.250000000E+02  0.00000E+00  9.000E+00
      25     1     1     2     0     0 -3.842045893E+01 -1.360245041E+02 -7.457969030E+01  2.028938826E+02  1.250000000E+02  0.00000E+00  9.000E+00
      21     1     1     2   502   511 -1.072622822E+02 -2.911761470E+01 -7.635042562E+01  1.348422047E+02  2.697398305E-06  0.00000E+00  9.000E+00
#rwgt            1           1   3.4652787752859550E-002           5      429277           0
</event>
<event>
      5   9999  3.79277E-02  4.35181E+01 -1.00000E+00  1.42606E-01
      21    -1     0     0   502   501  0.000000000E+00  0.000000000E+00  4.835330066E+02  4.835330066E+02  0.000000000E+00  0.00000E+00  9.000E+00
      21    -1     0     0   512   502  0.000000000E+00  0.000000000E+00 -1.359917760E+02  1.359917760E+02  0.000000000E+00  0.00000E+00  9.000E+00
      25     1     1     2     0     0  1.087157074E+02 -1.135713428E+02  9.881638379E+01  2.238464488E+02  1.250000000E+02  0.00000E+00  9.000E+00
      25     1     1     2     0     0 -1.228364916E+02  1.547347822E+02  2.610646053E+02  3.504445529E+02  1.250000000E+02  0.00000E+00  9.000E+00
      21     1     1     2   512   501  1.412078416E+01 -4.116343934E+01 -1.233975852E+01  4.523378079E+01  4.129530925E-07  0.00000E+00  9.000E+00
#rwgt            1           1   3.6429904364126700E-002           5      429336           0
</event>
<event>
      5   9999 -3.89354E-02  1.60595E+01 -1.00000E+00  1.74636E-01
      21    -1     0     0   502   501  0.000000000E+00  0.000000000E+00  2.439112614E+02  2.439112614E+02  0.000000000E+00  0.00000E+00  9.000E+00
      21    -1     0     0   501   511  0.000000000E+00  0.000000000E+00 -2.865878197E+02  2.865878197E+02  0.000000000E+00  0.00000E+00  9.000E+00
      25     1     1     2     0     0  1.308306631E+02  1.075101118E+02  1.220325428E+02  2.432941184E+02  1.250000000E+02  0.00000E+00  9.000E+00
      25     1     1     2     0     0 -1.205098163E+02 -1.198140161E+02 -1.270422939E+02  2.462575049E+02  1.250000000E+02  0.00000E+00  9.000E+00
      21     1     1     2   502   511 -1.032084682E+01  1.230390431E+01 -3.766680718E+01  4.094745784E+01  4.768371582E-07  0.00000E+00  9.000E+00
#rwgt            1           1 -0.30198967530173365                5      429429           0
</event>
<event>
      5   9999  3.79277E-02  4.68533E+01 -1.00000E+00  1.40706E-01
       2    -1     0     0   502     0  0.000000000E+00  0.000000000E+00  1.095324506E+03  1.095324506E+03  0.000000000E+00  0.00000E+00  9.000E+00
      21    -1     0     0   501   502  0.000000000E+00  0.000000000E+00 -7.508373622E+01  7.508373622E+01  0.000000000E+00  0.00000E+00  9.000E+00
      25     1     1     2     0     0 -3.243971783E+01 -1.142894938E+02  2.423970548E+02  2.974823623E+02  1.250000000E+02  0.00000E+00  9.000E+00
      25     1     1     2     0     0  6.816461397E+01  1.446039599E+02  1.741404691E+02  2.674072228E+02  1.250000000E+02  0.00000E+00  9.000E+00
       2     1     1     2   501     0 -3.572489615E+01 -3.031446612E+01  6.037032461E+02  6.055186573E+02  1.321449896E-05  0.00000E+00  9.000E+00
#rwgt            1           1   4.0216781807735379E-002           5      429615           0
</event>
<event>
      5   9999  3.79277E-02  2.52306E+01 -1.00000E+00  1.58453E-01
      21    -1     0     0   511   501  0.000000000E+00  0.000000000E+00  1.180450741E+02  1.180450741E+02  0.000000000E+00  0.00000E+00  9.000E+00
      21    -1     0     0   501   502  0.000000000E+00  0.000000000E+00 -4.072149022E+02  4.072149022E+02  0.000000000E+00  0.00000E+00  9.000E+00
      25     1     1     2     0     0  4.158042181E+01  6.536193744E+00 -6.142929662E+01  1.454998687E+02  1.250000000E+02  0.00000E+00  9.000E+00
      25     1     1     2     0     0 -1.770824808E+01 -1.470327437E+01 -2.877998088E+02  3.146164304E+02  1.250000000E+02  0.00000E+00  9.000E+00
      21     1     1     2   511   502 -2.387217373E+01  8.167080623E+00  6.005927732E+01  6.514367718E+01  0.000000000E+00  0.00000E+00  9.000E+00
#rwgt            1           1   9.5271186997399240E-002           5      429721           0
</event>
<event>
      5   9999  3.79277E-02  1.20754E+01 -1.00000E+00  1.86742E-01
      21    -1     0     0   502   512  0.000000000E+00  0.000000000E+00  7.881499924E+02  7.881499924E+02  0.000000000E+00  0.00000E+00  9.000E+00
      21    -1     0     0   501   502  0.000000000E+00  0.000000000E+00 -3.911636398E+01  3.911636398E+01  0.000000000E+00  0.00000E+00  9.000E+00
      25     1     1     2     0     0 -2.863879854E+01 -9.699590678E+01  4.538867209E+02  4.815252248E+02  1.250000000E+02  0.00000E+00  9.000E+00
      25     1     1     2     0     0  2.151251469E+01  1.067443564E+02  2.578965668E+02  3.065824279E+02  1.250000000E+02  0.00000E+00  9.000E+00
      21     1     1     2   501   512  7.126283858E+00 -9.748449658E+00  3.725034068E+01  3.915870367E+01  8.259061849E-07  0.00000E+00  9.000E+00
#rwgt            1           1   4.2338332668839206E-002           5      429916           0
</event>
<event>
      5   9999  3.79277E-02  6.41600E+01 -1.00000E+00  1.33166E-01
      21    -1     0     0   511   501  0.000000000E+00  0.000000000E+00  6.837903440E+02  6.837903440E+02  0.000000000E+00  0.00000E+00  9.000E+00
      21    -1     0     0   501   502  0.000000000E+00  0.000000000E+00 -5.911009411E+02  5.911009411E+02  0.000000000E+00  0.00000E+00  9.000E+00
      25     1     1     2     0     0 -1.614404291E+02  3.769324130E+01 -2.493592305E+02  3.244823854E+02  1.250000000E+02  0.00000E+00  9.000E+00
      25     1     1     2     0     0  9.879856926E+01 -5.156771432E+01 -2.793525555E+02  3.257042166E+02  1.250000000E+02  0.00000E+00  9.000E+00
      21     1     1     2   511   502  6.264185984E+01  1.387447302E+01  6.214011889E+02  6.247046832E+02  1.078959322E-05  0.00000E+00  9.000E+00
#rwgt            1           1   3.3904779845974918E-002           5      430161           0
</event>
<event>
      5   9999  3.79277E-02  1.62009E+02 -1.00000E+00  1.15083E-01
      21    -1     0     0   502   501  0.000000000E+00  0.000000000E+00  5.537702518E+02  5.537702518E+02  0.000000000E+00  0.00000E+00  9.000E+00
      21    -1     0     0   512   502  0.000000000E+00  0.000000000E+00 -1.929891351E+02  1.929891351E+02  0.000000000E+00  0.00000E+00  9.000E+00
      25     1     1     2     0     0 -7.326859327E+01 -1.891042282E+02  3.665378187E+01  2.410335985E+02  1.250000000E+02  0.00000E+00  9.000E+00
      25     1     1     2     0     0 -7.920922720E+01  1.343556860E+02  2.678792005E+02  3.342301873E+02  1.250000000E+02  0.00000E+00  9.000E+00
      21     1     1     2   512   501  1.524778205E+02  5.474854213E+01  5.624813435E+01  1.714956012E+02  9.536743164E-07  0.00000E+00  9.000E+00
#rwgt            1           1  0.10024800819952755                5      430225           0
</event>
<event>
      5   9999  3.79277E-02  4.68914E+01 -1.00000E+00  1.40685E-01
      21    -1     0     0   502   511  0.000000000E+00  0.000000000E+00  1.592110980E+02  1.592110980E+02  0.000000000E+00  0.00000E+00  9.000E+00
      21    -1     0     0   501   502  0.000000000E+00  0.000000000E+00 -7.562457170E+02  7.562457170E+02  0.000000000E+00  0.00000E+00  9.000E+00
      25     1     1     2     0     0 -4.991519985E+01  2.779998453E+02 -2.635924717E+02  4.060559472E+02  1.250000000E+02  0.00000E+00  9.000E+00
      25     1     1     2     0     0  9.144786804E+01 -2.997677272E+02 -3.029983360E+02  4.534935440E+02  1.250000000E+02  0.00000E+00  9.000E+00
      21     1     1     2   501   511 -4.153266819E+01  2.176788184E+01 -3.044381141E+01  5.590732385E+01  1.261592536E-06  0.00000E+00  9.000E+00
#rwgt            1           1   7.2762633130138768E-002           5      430269           0
</event>
<event>
      5   9999  3.79277E-02  2.09729E+01 -1.00000E+00  1.64685E-01
      21    -1     0     0   502   512  0.000000000E+00  0.000000000E+00  1.374485494E+02  1.374485494E+02  0.000000000E+00  0.00000E+00  9.000E+00
      21    -1     0     0   501   502  0.000000000E+00  0.000000000E+00 -4.032120222E+02  4.032120222E+02  0.000000000E+00  0.00000E+00  9.000E+00
      25     1     1     2     0     0 -1.219281602E+02 -4.728519608E+01 -5.969750440E+01  1.905023833E+02  1.250000000E+02  0.00000E+00  9.000E+00
      25     1     1     2     0     0  1.144988005E+02  6.689817088E+01 -2.453503903E+02  3.056258409E+02  1.250000000E+02  0.00000E+00  9.000E+00
      21     1     1     2   501   512  7.429359638E+00 -1.961297479E+01  3.928442189E+01  4.453234744E+01  9.536743164E-07  0.00000E+00  9.000E+00
#rwgt            1           1   4.3837560934624910E-002           5      430417           0
</event>
<event>
      5   9999  3.79277E-02  2.16362E+01 -1.00000E+00  1.63600E-01
      21    -1     0     0   502   501  0.000000000E+00  0.000000000E+00  1.336629421E+02  1.336629421E+02  0.000000000E+00  0.00000E+00  9.000E+00
       2    -1     0     0   501     0  0.000000000E+00  0.000000000E+00 -5.542588149E+02  5.542588149E+02  0.000000000E+00  0.00000E+00  9.000E+00
      25     1     1     2     0     0 -1.329432058E+02 -1.457050534E+02 -6.678549891E+01  2.428768441E+02  1.250000000E+02  0.00000E+00  9.000E+00
      25     1     1     2     0     0  1.117819087E+02  1.502131039E+02 -2.394848502E+02  3.286900747E+02  1.250000000E+02  0.00000E+00  9.000E+00
       2     1     1     2   502     0  2.116129704E+01 -4.508050502E+00 -1.143255237E+02  1.163548382E+02  1.348699152E-06  0.00000E+00  9.000E+00
#rwgt            1           1   2.9423898238956820E-002           5      430608           0
</event>
<event>
      5   9999  3.79277E-02  7.07513E+01 -1.00000E+00  1.30986E-01
      21    -1     0     0   502   511  0.000000000E+00  0.000000000E+00  8.095337630E+02  8.095337630E+02  0.000000000E+00  0.00000E+00  9.000E+00
      21    -1     0     0   501   502  0.000000000E+00  0.000000000E+00 -4.304376360E+02  4.304376360E+02  0.000000000E+00  0.00000E+00  9.000E+00
      25     1     1     2     0     0 -1.007646372E+02  1.029584060E+02 -1.993582412E+02  2.759033414E+02  1.250000000E+02  0.00000E+00  9.000E+00
      25     1     1     2     0     0  6.230763807E+01 -1.623452807E+02 -1.310318154E+02  2.510628778E+02  1.250000000E+02  0.00000E+00  9.000E+00
      21     1     1     2   501   511  3.845699909E+01  5.938687474E+01  7.094861837E+02  7.130051799E+02  1.525878906E-05  0.00000E+00  9.000E+00
#rwgt            1           1   4.0992912675844512E-002           5      430893           0
</event>
<event>
      5   9999 -3.79277E-02  1.02271E+02 -1.00000E+00  1.23391E-01
      -1    -1     0     0     0   501  0.000000000E+00  0.000000000E+00  8.729097125E+02  8.729097125E+02  0.000000000E+00  0.00000E+00  9.000E+00
      21    -1     0     0   501   502  0.000000000E+00  0.000000000E+00 -2.075745238E+02  2.075745238E+02  0.000000000E+00  0.00000E+00  9.000E+00
      25     1     1     2     0     0  1.164514020E+02 -2.326556366E+02  8.525540203E+01  3.009701942E+02  1.250000000E+02  0.00000E+00  9.000E+00
      25     1     1     2     0     0 -1.863486893E+02  1.579988508E+02  1.054596501E+02  2.940003548E+02  1.250000000E+02  0.00000E+00  9.000E+00
      -1     1     1     2     0   502  6.989728727E+01  7.465678580E+01  4.746201366E+02  4.855136872E+02  0.000000000E+00  0.00000E+00  9.000E+00
#rwgt            1           1 -0.24422696278266151                5      430993           0
</event>
<event>
      5   9999  3.79277E-02  5.59061E+01 -1.00000E+00  1.36364E-01
       2    -1     0     0   502     0  0.000000000E+00  0.000000000E+00  2.385234644E+03  2.385234644E+03  0.000000000E+00  0.00000E+00  9.000E+00
      21    -1     0     0   501   502  0.000000000E+00  0.000000000E+00 -3.945510912E+02  3.945510912E+02  0.000000000E+00  0.00000E+00  9.000E+00
      25     1     1     2     0     0  1.001992991E+02 -2.153043265E+02  1.474521697E+02  3.062074377E+02  1.250000000E+02  0.00000E+00  9.000E+00
      25     1     1     2     0     0 -6.331715549E+01  2.573185384E+02 -2.466238169E+02  3.829754554E+02  1.250000000E+02  0.00000E+00  9.000E+00
       2     1     1     2   501     0 -3.688214365E+01 -4.201421189E+01  2.089855200E+03  2.090602842E+03  0.000000000E+00  0.00000E+00  9.000E+00
#rwgt            1           1   3.6692730025397885E-002           5      431090           0
</event>
<event>
      5   9999  3.79277E-02  2.58559E+01 -1.00000E+00  1.57664E-01
      21    -1     0     0   502   511  0.000000000E+00  0.000000000E+00  9.477857561E+02  9.477857561E+02  0.000000000E+00  0.00000E+00  9.000E+00
      21    -1     0     0   501   502  0.000000000E+00  0.000000000E+00 -5.781941181E+01  5.781941181E+01  0.000000000E+00  0.00000E+00  9.000E+00
      25     1     1     2     0     0  1.137674378E+02 -8.869690173E+01  1.613497263E+02  2.499378012E+02  1.250000000E+02  0.00000E+00  9.000E+00
      25     1     1     2     0     0 -8.864244800E+01  8.259272318E+01  6.163519375E+02  6.404637011E+02  1.250000000E+02  0.00000E+00  9.000E+00
      21     1     1     2   501   511 -2.512498977E+01  6.104178554E+00  1.122646804E+02  1.152036657E+02  1.348699152E-06  0.00000E+00  9.000E+00
#rwgt            1           1   3.8500732828508959E-002           5      431287           0
</event>
<event>
      5   9999  3.79277E-02  3.57879E+01 -1.00000E+00  1.47902E-01
      21    -1     0     0   502   501  0.000000000E+00  0.000000000E+00  1.424754600E+03  1.424754600E+03  0.000000000E+00  0.00000E+00  9.000E+00
      21    -1     0     0   501   512  0.000000000E+00  0.000000000E+00 -7.412856682E+01  7.412856682E+01  0.000000000E+00  0.00000E+00  9.000E+00
      25     1     1     2     0     0 -1.254239361E+02  7.336422402E+00  1.038497710E+03  1.053511974E+03  1.250000000E+02  0.00000E+00  9.000E+00
      25     1     1     2     0     0  9.105465481E+01  2.639755242E+00  3.563578822E+02  3.884763296E+02  1.250000000E+02  0.00000E+00  9.000E+00
      21     1     1     2   502   512  3.436928128E+01 -9.976177644E+00 -4.422955847E+01  5.689486320E+01  9.536743164E-07  0.00000E+00  9.000E+00
#rwgt            1           1   4.3161089845025348E-002           5      431640           0
</event>
<event>
      5   9999  3.79277E-02  1.57208E+02 -1.00000E+00  1.15591E-01
      21    -1     0     0   502   501  0.000000000E+00  0.000000000E+00  9.222412080E+02  9.222412080E+02  0.000000000E+00  0.00000E+00  9.000E+00
      21    -1     0     0   501   511  0.000000000E+00  0.000000000E+00 -2.635299221E+02  2.635299221E+02  0.000000000E+00  0.00000E+00  9.000E+00
      25     1     1     2     0     0 -2.990870350E+01 -4.944220964E+01  8.062578284E+02  8.179338289E+02  1.250000000E+02  0.00000E+00  9.000E+00
      25     1     1     2     0     0 -1.115456154E+02 -1.915045098E+01 -2.936513555E+01  1.711621315E+02  1.250000000E+02  0.00000E+00  9.000E+00
      21     1     1     2   502   511  1.414543189E+02  6.859266062E+01 -1.181814070E+02  1.966751697E+02  2.336015456E-06  0.00000E+00  9.000E+00
#rwgt            1           1   3.9825679890852277E-002           5      431944           0
</event>
<event>
      5   9999  3.79277E-02  1.73083E+01 -1.00000E+00  1.71721E-01
      21    -1     0     0   502   501  0.000000000E+00  0.000000000E+00  8.933894386E+01  8.933894386E+01  0.000000000E+00  0.00000E+00  9.000E+00
      21    -1     0     0   501   512  0.000000000E+00  0.000000000E+00 -1.147497571E+03  1.147497571E+03  0.000000000E+00  0.00000E+00  9.000E+00
      25     1     1     2     0     0 -7.350691548E+01 -2.089556188E+01  1.804461590E+01  1.476160536E+02  1.250000000E+02  0.00000E+00  9.000E+00
      25     1     1     2     0     0  7.475322477E+01  3.815889320E+01 -9.598716515E+02  9.716083229E+02  1.250000000E+02  0.00000E+00  9.000E+00
      21     1     1     2   502   512 -1.246309297E+00 -1.726333132E+01 -1.163315918E+02  1.176121386E+02  1.348699152E-06  0.00000E+00  9.000E+00
#rwgt            1           1   3.9556155528761135E-002           5      432007           0
</event>
<event>
      5   9999  3.79277E-02  4.90484E+01 -1.00000E+00  1.39553E-01
      21    -1     0     0   502   501  0.000000000E+00  0.000000000E+00  1.119869492E+03  1.119869492E+03  0.000000000E+00  0.00000E+00  9.000E+00
      21    -1     0     0   511   502  0.000000000E+00  0.000000000E+00 -3.575963868E+02  3.575963868E+02  0.000000000E+00  0.00000E+00  9.000E+00
      25     1     1     2     0     0  1.369426836E+02 -5.144327543E+01  4.569725061E+02  4.958312016E+02  1.250000000E+02  0.00000E+00  9.000E+00
      25     1     1     2     0     0 -1.254566591E+02  9.912778395E+01  6.255505297E+02  6.576504817E+02  1.250000000E+02  0.00000E+00  9.000E+00
      21     1     1     2   511   501 -1.148602447E+01 -4.768450851E+01 -3.202499304E+02  3.239841957E+02  0.000000000E+00  0.00000E+00  9.000E+00
#rwgt            1           1   3.7762165258313309E-002           5      432375           0
</event>
<event>
      5   9999  3.79277E-02  2.01604E+01 -1.00000E+00  1.66083E-01
      21    -1     0     0   512   501  0.000000000E+00  0.000000000E+00  2.958130179E+02  2.958130179E+02  0.000000000E+00  0.00000E+00  9.000E+00
      21    -1     0     0   501   502  0.000000000E+00  0.000000000E+00 -3.992232312E+02  3.992232312E+02  0.000000000E+00  0.00000E+00  9.000E+00
      25     1     1     2     0     0 -1.342567646E+02 -1.991088740E+02  1.341629218E+02  3.021488244E+02  1.250000000E+02  0.00000E+00  9.000E+00
      25     1     1     2     0     0  1.177727335E+02  2.107156734E+02 -2.499048327E+02  3.692545696E+02  1.250000000E+02  0.00000E+00  9.000E+00
      21     1     1     2   512   502  1.648403103E+01 -1.160679947E+01  1.233169751E+01  2.363285502E+01  3.769728732E-07  0.00000E+00  9.000E+00
#rwgt            1           1   2.5217419272090317E-002           5      432477           0
</event>
<event>
      5   9999  3.79277E-02  1.70426E+01 -1.00000E+00  1.72315E-01
      21    -1     0     0   502   501  0.000000000E+00  0.000000000E+00  1.100740025E+02  1.100740025E+02  0.000000000E+00  0.00000E+00  9.000E+00
       2    -1     0     0   501     0  0.000000000E+00  0.000000000E+00 -8.278564853E+02  8.278564853E+02  0.000000000E+00  0.00000E+00  9.000E+00
      25     1     1     2     0     0 -6.635011630E+01 -6.852167014E+01 -1.988509938E+02  2.535039939E+02  1.250000000E+02  0.00000E+00  9.000E+00
      25     1     1     2     0     0  6.750387759E+01  5.151817317E+01  1.350458896E+01  1.517177299E+02  1.250000000E+02  0.00000E+00  9.000E+00
       2     1     1     2   502     0 -1.153761298E+00  1.700349696E+01 -5.324360780E+02  5.327087640E+02  0.000000000E+00  0.00000E+00  9.000E+00
#rwgt            1           1   4.8236285994715696E-002           5      432717           0
</event>
<event>
      5   9999  3.79277E-02  1.85047E+01 -1.00000E+00  1.69203E-01
       1    -1     0     0   502     0  0.000000000E+00  0.000000000E+00  1.929122050E+03  1.929122050E+03  0.000000000E+00  0.00000E+00  9.000E+00
      21    -1     0     0   501   502  0.000000000E+00  0.000000000E+00 -1.895436489E+01  1.895436489E+01  0.000000000E+00  0.00000E+00  9.000E+00
      25     1     1     2     0     0  1.054392213E+02 -5.575222314E+00  1.258158387E+03  1.268753735E+03  1.250000000E+02  0.00000E+00  9.000E+00
      25     1     1     2     0     0 -9.824663799E+01 -1.147444162E+01  4.683404176E+02  4.947239750E+02  1.250000000E+02  0.00000E+00  9.000E+00
       1     1     1     2   501     0 -7.192583347E+00  1.704966393E+01  1.836688802E+02  1.845987049E+02  0.000000000E+00  0.00000E+00  9.000E+00
#rwgt            1           1  0.12479947323386319                5      432861           0
</event>
<event>
      5   9999  3.79277E-02  1.87612E+01 -1.00000E+00  1.68693E-01
      21    -1     0     0   502   501  0.000000000E+00  0.000000000E+00  1.646132698E+02  1.646132698E+02  0.000000000E+00  0.00000E+00  9.000E+00
      21    -1     0     0   501   511  0.000000000E+00  0.000000000E+00 -5.261515396E+02  5.261515396E+02  0.000000000E+00  0.00000E+00  9.000E+00
      25     1     1     2     0     0 -1.383908329E+02 -1.356941462E+02  1.405364765E+01  2.310571985E+02  1.250000000E+02  0.00000E+00  9.000E+00
      25     1     1     2     0     0  1.441992382E+02  1.535335647E+02 -3.349937042E+02  4.149840450E+02  1.250000000E+02  0.00000E+00  9.000E+00
      21     1     1     2   502   511 -5.808405260E+00 -1.783941846E+01 -4.059821322E+01  4.472356582E+01  6.743495762E-07  0.00000E+00  9.000E+00
#rwgt            1           1   2.7416774302991786E-002           5      433124           0
</event>
<event>
      5   9999  3.79277E-02  3.75809E+01 -1.00000E+00  1.46541E-01
      21    -1     0     0   502   512  0.000000000E+00  0.000000000E+00  6.751988943E+02  6.751988943E+02  0.000000000E+00  0.00000E+00  9.000E+00
      21    -1     0     0   501   502  0.000000000E+00  0.000000000E+00 -1.160389843E+02  1.160389843E+02  0.000000000E+00  0.00000E+00  9.000E+00
      25     1     1     2     0     0  9.267360665E+01 -1.711711712E+02  1.262139956E+02  2.635202837E+02  1.250000000E+02  0.00000E+00  9.000E+00
      25     1     1     2     0     0 -1.125184558E+02  2.030852035E+02  3.881817119E+02  4.692696924E+02  1.250000000E+02  0.00000E+00  9.000E+00
      21     1     1     2   501   512  1.984484912E+01 -3.191403230E+01  4.476420241E+01  5.844790254E+01  0.000000000E+00  0.00000E+00  9.000E+00
#rwgt            1           1   3.6473986346579550E-002           5      433480           0
</event>
<event>
      5   9999  3.79277E-02  1.60264E+01 -1.00000E+00  1.74718E-01
      21    -1     0     0   502   501  0.000000000E+00  0.000000000E+00  1.914260263E+02  1.914260263E+02  0.000000000E+00  0.00000E+00  9.000E+00
      21    -1     0     0   501   511  0.000000000E+00  0.000000000E+00 -5.201506776E+02  5.201506776E+02  0.000000000E+00  0.00000E+00  9.000E+00
      25     1     1     2     0     0  1.578818577E+02 -1.051594551E+02  1.177996315E+01  2.274839764E+02  1.250000000E+02  0.00000E+00  9.000E+00
      25     1     1     2     0     0 -1.736966816E+02  1.077549022E+02 -1.292586391E+02  2.722396957E+02  1.250000000E+02  0.00000E+00  9.000E+00
      21     1     1     2   502   511  1.581482389E+01 -2.595447075E+00 -2.112459753E+02  2.118530317E+02  0.000000000E+00  0.00000E+00  9.000E+00
#rwgt            1           1   3.4089790170083796E-002           5      433568           0
</event>
<event>
      5   9999  3.79277E-02  2.99255E+01 -1.00000E+00  1.53115E-01
       4    -1     0     0   502     0  0.000000000E+00  0.000000000E+00  2.279579296E+02  2.279579296E+02  0.000000000E+00  0.00000E+00  9.000E+00
      21    -1     0     0   501   502  0.000000000E+00  0.000000000E+00 -2.842932257E+02  2.842932257E+02  0.000000000E+00  0.00000E+00  9.000E+00
      25     1     1     2     0     0 -1.003857412E+02 -1.774538859E+01 -2.110462543E+02  2.656270267E+02  1.250000000E+02  0.00000E+00  9.000E+00
      25     1     1     2     0     0  7.212438491E+01  2.758557133E+01  8.260991625E+01  1.685594521E+02  1.250000000E+02  0.00000E+00  9.000E+00
       4     1     1     2   501     0  2.826135629E+01 -9.840182735E+00  7.210104200E+01  7.806467648E+01  1.348699152E-06  0.00000E+00  9.000E+00
#rwgt            1           1   4.4817250716538866E-002           5      433904           0
</event>
<event>
      5   9999  3.79277E-02  7.65558E+01 -1.00000E+00  1.29281E-01
      21    -1     0     0   511   501  0.000000000E+00  0.000000000E+00  4.870609921E+02  4.870609921E+02  0.000000000E+00  0.00000E+00  9.000E+00
      21    -1     0     0   501   502  0.000000000E+00  0.000000000E+00 -4.676807538E+02  4.676807538E+02  0.000000000E+00  0.00000E+00  9.000E+00
      25     1     1     2     0     0  1.987047301E+02 -1.626248973E+02  3.190576760E+01  2.873558856E+02  1.250000000E+02  0.00000E+00  9.000E+00
      25     1     1     2     0     0 -1.704538074E+02  2.337773943E+02 -2.598544339E+02  4.084797393E+02  1.250000000E+02  0.00000E+00  9.000E+00
      21     1     1     2   511   502 -2.825092265E+01 -7.115249707E+01  2.473289046E+02  2.589061210E+02  2.697398305E-06  0.00000E+00  9.000E+00
#rwgt            1           1   3.4405154847043991E-002           5      434155           0
</event>
<event>
      5   9999  3.79277E-02  3.73976E+01 -1.00000E+00  1.46676E-01
      21    -1     0     0   502   501  0.000000000E+00  0.000000000E+00  5.762693967E+01  5.762693967E+01  0.000000000E+00  0.00000E+00  9.000E+00
      21    -1     0     0   501   512  0.000000000E+00  0.000000000E+00 -4.785442150E+02  4.785442150E+02  0.000000000E+00  0.00000E+00  9.000E+00
      25     1     1     2     0     0 -6.573965291E+01  2.356385483E+01 -2.106508588E+02  2.547071682E+02  1.250000000E+02  0.00000E+00  9.000E+00
      25     1     1     2     0     0  5.392345740E+01 -5.904567131E+01 -1.536034373E+02  2.135723449E+02  1.250000000E+02  0.00000E+00  9.000E+00
      21     1     1     2   502   512  1.181619552E+01  3.548181648E+01 -5.666297921E+01  6.789164153E+01  6.743495762E-07  0.00000E+00  9.000E+00
#rwgt            1           1   9.4972966560848943E-002           5      434311           0
</event>
<event>
      5   9999  3.79277E-02  1.09515E+02 -1.00000E+00  1.22078E-01
      21    -1     0     0   502   511  0.000000000E+00  0.000000000E+00  7.472646746E+02  7.472646746E+02  0.000000000E+00  0.00000E+00  9.000E+00
      21    -1     0     0   501   502  0.000000000E+00  0.000000000E+00 -8.950370339E+01  8.950370339E+01  0.000000000E+00  0.00000E+00  9.000E+00
      25     1     1     2     0     0 -5.266033518E+01  1.587043912E+02  3.060258654E+02  3.704551592E+02  1.250000000E+02  0.00000E+00  9.000E+00
      25     1     1     2     0     0 -5.818519201E+00 -6.610928320E+01  5.821932502E+01  1.530319650E+02  1.250000000E+02  0.00000E+00  9.000E+00
      21     1     1     2   501   511  5.847885438E+01 -9.259510799E+01  2.935157808E+02  3.132812538E+02  0.000000000E+00  0.00000E+00  9.000E+00
#rwgt            1           1  0.12496263055786098                5      434419           0
</event>
<event>
      5   9999  3.79277E-02  2.23731E+01 -1.00000E+00  1.62449E-01
      21    -1     0     0   512   501  0.000000000E+00  0.000000000E+00  1.078047005E+03  1.078047005E+03  0.000000000E+00  0.00000E+00  9.000E+00
      21    -1     0     0   501   502  0.000000000E+00  0.000000000E+00 -2.343712345E+02  2.343712345E+02  0.000000000E+00  0.00000E+00  9.000E+00
      25     1     1     2     0     0 -1.993082491E+02  1.588273685E+01 -1.113938519E+01  2.360616983E+02  1.250000000E+02  0.00000E+00  9.000E+00
      25     1     1     2     0     0  2.159225597E+02 -3.086669390E+01  3.221522140E+01  2.534524118E+02  1.250000000E+02  0.00000E+00  9.000E+00
      21     1     1     2   512   502 -1.661431053E+01  1.498395705E+01  8.225999344E+02  8.229041295E+02  1.525878906E-05  0.00000E+00  9.000E+00
#rwgt            1           1   3.7598801920890691E-002           5      434495           0
</event>
<event>
      5   9999  3.79277E-02  5.48619E+01 -1.00000E+00  1.36814E-01
      21    -1     0     0   502   511  0.000000000E+00  0.000000000E+00  3.189863893E+02  3.189863893E+02  0.000000000E+00  0.00000E+00  9.000E+00
      21    -1     0     0   501   502  0.000000000E+00  0.000000000E+00 -1.387041626E+02  1.387041626E+02  0.000000000E+00  0.00000E+00  9.000E+00
      25     1     1     2     0     0 -6.570971142E+01  1.751940034E+01  2.029265445E+02  2.478484981E+02  1.250000000E+02  0.00000E+00  9.000E+00
      25     1     1     2     0     0  1.360569861E+01 -3.469486169E+01 -5.989243055E+01  1.435303163E+02  1.250000000E+02  0.00000E+00  9.000E+00
      21     1     1     2   501   511  5.210401281E+01  1.717546135E+01  3.724811275E+01  6.631173748E+01  6.743495762E-07  0.00000E+00  9.000E+00
#rwgt            1           1   4.5389000319066737E-002           5      434707           0
</event>
<event>
      5   9999  3.79277E-02  7.78908E+01  7.55638E-03  1.28914E-01
       1    -1     0     0   501     0  0.000000000E+00  0.000000000E+00  8.980744382E+02  8.980744382E+02  0.000000000E+00  0.00000E+00  9.000E+00
      -1    -1     0     0     0   502  0.000000000E+00  0.000000000E+00 -5.310620459E+01  5.310620459E+01  0.000000000E+00  0.00000E+00  9.000E+00
      25     1     1     2     0     0 -6.268825184E+00 -1.026488674E+02  4.778870465E+02  5.045563570E+02  1.250000000E+02  0.00000E+00  9.000E+00
      25     1     1     2     0     0  2.535559995E+01  2.713283224E+01  3.400189827E+02  3.641661786E+02  1.250000000E+02  0.00000E+00  9.000E+00
      21     1     1     2   501   502 -1.908677477E+01  7.551603513E+01  2.706220434E+01  8.245810716E+01  1.752011592E-06  0.00000E+00  9.000E+00
#rwgt            3           6   8.4700843310575754E-004           5      434842           0
</event>
<event>
      5   9999  3.79277E-02  5.12913E+01 -1.00000E+00  1.38447E-01
       1    -1     0     0   502     0  0.000000000E+00  0.000000000E+00  6.490034526E+02  6.490034526E+02  0.000000000E+00  0.00000E+00  9.000E+00
      21    -1     0     0   501   502  0.000000000E+00  0.000000000E+00 -1.932167239E+02  1.932167239E+02  0.000000000E+00  0.00000E+00  9.000E+00
      25     1     1     2     0     0 -8.942819252E+01 -6.909309442E+01 -6.913056662E+01  1.821408591E+02  1.250000000E+02  0.00000E+00  9.000E+00
      25     1     1     2     0     0  1.017044634E+02  1.188935586E+02  8.561756020E+01  2.177954149E+02  1.250000000E+02  0.00000E+00  9.000E+00
       1     1     1     2   501     0 -1.227627092E+01 -4.980046414E+01  4.392997352E+02  4.422839025E+02  0.000000000E+00  0.00000E+00  9.000E+00
#rwgt            1           1   4.0108396240718845E-002           5      434861           0
</event>
<event>
      5   9999  3.79277E-02  4.58127E+01 -1.00000E+00  1.41278E-01
      21    -1     0     0   502   501  0.000000000E+00  0.000000000E+00  9.186360914E+01  9.186360914E+01  0.000000000E+00  0.00000E+00  9.000E+00
      21    -1     0     0   511   502  0.000000000E+00  0.000000000E+00 -8.895467650E+02  8.895467650E+02  0.000000000E+00  0.00000E+00  9.000E+00
      25     1     1     2     0     0  3.846141025E+01  2.925573185E+01 -2.584330708E+02  2.911148055E+02  1.250000000E+02  0.00000E+00  9.000E+00
      25     1     1     2     0     0 -7.397169315E+01 -5.820095200E+01 -7.582426391E+00  1.566577652E+02  1.250000000E+02  0.00000E+00  9.000E+00
      21     1     1     2   511   501  3.551028290E+01  2.894522015E+01 -5.316676587E+02  5.336378034E+02  1.078959322E-05  0.00000E+00  9.000E+00
#rwgt            1           1   4.2317556694045411E-002           5      434950           0
</event>
<event>
      5   9999  3.79277E-02  9.77715E+01 -1.00000E+00  1.24270E-01
      21    -1     0     0   502   501  0.000000000E+00  0.000000000E+00  2.544070308E+02  2.544070308E+02  0.000000000E+00  0.00000E+00  9.000E+00
       4    -1     0     0   501     0  0.000000000E+00  0.000000000E+00 -5.419918495E+02  5.419918495E+02  0.000000000E+00  0.00000E+00  9.000E+00
      25     1     1     2     0     0 -2.009734288E+02  5.621054761E+01  6.091520201E+01  2.507700273E+02  1.250000000E+02  0.00000E+00  9.000E+00
      25     1     1     2     0     0  1.544185815E+02  2.976563985E+01 -1.883313423E+01  2.017691220E+02  1.250000000E+02  0.00000E+00  9.000E+00
       4     1     1     2   502     0  4.655484729E+01 -8.597618746E+01 -3.296668864E+02  3.438597310E+02  3.814697266E-06  0.00000E+00  9.000E+00
#rwgt            1           1   3.9907448861896809E-002           5      435059           0
</event>
<event>
      5   9999  3.79277E-02  8.89909E+01 -1.00000E+00  1.26150E-01
      21    -1     0     0   511   501  0.000000000E+00  0.000000000E+00  2.838761705E+02  2.838761705E+02  0.000000000E+00  0.00000E+00  9.000E+00
      21    -1     0     0   501   502  0.000000000E+00  0.000000000E+00 -3.015618383E+02  3.015618383E+02  0.000000000E+00  0.00000E+00  9.000E+00
      25     1     1     2     0     0 -1.753450902E+02  1.030560318E+00 -4.993853075E+01  2.210561458E+02  1.250000000E+02  0.00000E+00  9.000E+00
      25     1     1     2     0     0  1.327049889E+02  7.707963853E+01 -8.648147711E+01  2.159998395E+02  1.250000000E+02  0.00000E+00  9.000E+00
      21     1     1     2   511   502  4.264010129E+01 -7.811019885E+01  1.187343400E+02  1.483820235E+02  2.336015456E-06  0.00000E+00  9.000E+00
#rwgt            1           1   3.0270549838080651E-002           5      435199           0
</event>
<event>
      5   9999  3.79277E-02  5.48801E+01 -1.00000E+00  1.36807E-01
      21    -1     0     0   502   501  0.000000000E+00  0.000000000E+00  1.829552157E+01  1.829552157E+01  0.000000000E+00  0.00000E+00  9.000E+00
      21    -1     0     0   501   512  0.000000000E+00  0.000000000E+00 -2.525983112E+03  2.525983112E+03  0.000000000E+00  0.00000E+00  9.000E+00
      25     1     1     2     0     0  1.474545801E+01  6.503835654E+01 -9.905594689E+02  1.000640034E+03  1.250000000E+02  0.00000E+00  9.000E+00
      25     1     1     2     0     0 -6.414273003E+01 -4.112738075E+01 -4.135401893E+02  4.386869492E+02  1.250000000E+02  0.00000E+00  9.000E+00
      21     1     1     2   502   512  4.939727202E+01 -2.391097578E+01 -1.103587933E+03  1.104951651E+03  0.000000000E+00  0.00000E+00  9.000E+00
#rwgt            1           1   4.1962801458956825E-002           5      435339           0
</event>
<event>
      5   9999  3.79277E-02  1.08434E+01 -1.00000E+00  1.91778E-01
      21    -1     0     0   502   511  0.000000000E+00  0.000000000E+00  2.143626948E+02  2.143626948E+02  0.000000000E+00  0.00000E+00  9.000E+00
      21    -1     0     0   501   502  0.000000000E+00  0.000000000E+00 -2.864104975E+02  2.864104975E+02  0.000000000E+00  0.00000E+00  9.000E+00
      25     1     1     2     0     0  1.891324215E+02  7.624816904E+01 -1.319018379E+01  2.395492373E+02  1.250000000E+02  0.00000E+00  9.000E+00
      25     1     1     2     0     0 -1.822538828E+02 -6.786571386E+01 -7.387316043E+01  2.427024448E+02  1.250000000E+02  0.00000E+00  9.000E+00
      21     1     1     2   501   511 -6.878538739E+00 -8.382455178E+00  1.501554159E+01  1.852151018E+01  0.000000000E+00  0.00000E+00  9.000E+00
#rwgt            1           1   3.1595602216464527E-002           5      435413           0
</event>
<event>
      5   9999  3.79277E-02  5.85648E+01 -1.00000E+00  1.35268E-01
      21    -1     0     0   512   501  0.000000000E+00  0.000000000E+00  5.538472250E+02  5.538472250E+02  0.000000000E+00  0.00000E+00  9.000E+00
      21    -1     0     0   501   502  0.000000000E+00  0.000000000E+00 -4.539260373E+02  4.539260373E+02  0.000000000E+00  0.00000E+00  9.000E+00
      25     1     1     2     0     0 -2.249326643E+02 -1.572603336E+02 -5.197704299E+00  3.016248201E+02  1.250000000E+02  0.00000E+00  9.000E+00
      25     1     1     2     0     0  1.921934745E+02  2.058194189E+02 -2.182182931E+02  3.775502460E+02  1.250000000E+02  0.00000E+00  9.000E+00
      21     1     1     2   512   502  3.273918972E+01 -4.855908528E+01  3.233371850E+02  3.285981962E+02  3.814697266E-06  0.00000E+00  9.000E+00
#rwgt            1           1   3.1718162926254470E-002           5      435696           0
</event>
<event>
      5   9999  3.79277E-02  3.37692E+01 -1.00000E+00  1.49553E-01
       2    -1     0     0   502     0  0.000000000E+00  0.000000000E+00  6.718241830E+02  6.718241830E+02  0.000000000E+00  0.00000E+00  9.000E+00
      21    -1     0     0   501   502  0.000000000E+00  0.000000000E+00 -7.862918166E+01  7.862918166E+01  0.000000000E+00  0.00000E+00  9.000E+00
      25     1     1     2     0     0 -7.726361055E+01  1.165113754E+02  1.073728922E+02  2.160983667E+02  1.250000000E+02  0.00000E+00  9.000E+00
      25     1     1     2     0     0  9.111829756E+01 -8.571511862E+01  3.247387970E+02  3.697700799E+02  1.250000000E+02  0.00000E+00  9.000E+00
       2     1     1     2   501     0 -1.385468701E+01 -3.079625682E+01  1.610833122E+02  1.645849181E+02  2.697398305E-06  0.00000E+00  9.000E+00
#rwgt            1           1   4.8162388389907600E-002           5      435810           0
</event>
<event>
      5   9999  3.79277E-02  3.39422E+02 -1.00000E+00  1.03879E-01
      21    -1     0     0   502   501  0.000000000E+00  0.000000000E+00  3.055041469E+02  3.055041469E+02  0.000000000E+00  0.00000E+00  9.000E+00
      21    -1     0     0   511   502  0.000000000E+00  0.000000000E+00 -7.550282052E+02  7.550282052E+02  0.000000000E+00  0.00000E+00  9.000E+00
      25     1     1     2     0     0 -1.540771769E+02 -1.622780089E+02 -3.020485655E+02  3.961467715E+02  1.250000000E+02  0.00000E+00  9.000E+00
      25     1     1     2     0     0 -1.766687807E+02  8.602472844E+01  9.049494975E+01  2.498528525E+02  1.250000000E+02  0.00000E+00  9.000E+00
      21     1     1     2   511   501  3.307459575E+02  7.625328047E+01 -2.379704425E+02  4.145327281E+02  4.672030912E-06  0.00000E+00  9.000E+00
#rwgt            1           1   2.4393886008790250E-002           5      436010           0
</event>
<event>
      5   9999  3.79277E-02  8.00681E+01 -1.00000E+00  1.28332E-01
      21    -1     0     0   502   512  0.000000000E+00  0.000000000E+00  2.552679313E+02  2.552679313E+02  0.000000000E+00  0.00000E+00  9.000E+00
      21    -1     0     0   501   502  0.000000000E+00  0.000000000E+00 -3.982584777E+02  3.982584777E+02  0.000000000E+00  0.00000E+00  9.000E+00
      25     1     1     2     0     0  1.386463828E+02 -5.762553375E+01  3.679717760E+01  1.988028015E+02  1.250000000E+02  0.00000E+00  9.000E+00
      25     1     1     2     0     0 -1.741111130E+02 -1.415994942E+01 -2.627815160E+02  3.394028712E+02  1.250000000E+02  0.00000E+00  9.000E+00
      21     1     1     2   501   512  3.546473018E+01  7.178548317E+01  8.299379208E+01  1.153207362E+02  0.000000000E+00  0.00000E+00  9.000E+00
#rwgt            2          11   1.9036022765155543E-003           5      436146           0
</event>
<event>
      5   9999  3.79277E-02  6.82832E+01 -1.00000E+00  1.31769E-01
      21    -1     0     0   502   501  0.000000000E+00  0.000000000E+00  5.584956665E+01  5.584956665E+01  0.000000000E+00  0.00000E+00  9.000E+00
       2    -1     0     0   501     0  0.000000000E+00  0.000000000E+00 -2.463855375E+03  2.463855375E+03  0.000000000E+00  0.00000E+00  9.000E+00
      25     1     1     2     0     0  6.603192893E+01 -1.112782060E+02 -1.684729693E+02  2.464775774E+02  1.250000000E+02  0.00000E+00  9.000E+00
      25     1     1     2     0     0 -1.329188614E+02  1.250162189E+02 -7.451111500E+02  7.772464890E+02  1.250000000E+02  0.00000E+00  9.000E+00
       2     1     1     2   502     0  6.688693250E+01 -1.373801287E+01 -1.494421689E+03  1.495980875E+03  2.157918644E-05  0.00000E+00  9.000E+00
#rwgt            1           1   4.0716914682393690E-002           5      436226           0
</event>
<event>
      5   9999  3.79277E-02  2.46257E+01 -1.00000E+00  1.59243E-01
      21    -1     0     0   502   511  0.000000000E+00  0.000000000E+00  1.313598196E+02  1.313598196E+02  0.000000000E+00  0.00000E+00  9.000E+00
      21    -1     0     0   501   502  0.000000000E+00  0.000000000E+00 -3.219641372E+02  3.219641372E+02  0.000000000E+00  0.00000E+00  9.000E+00
      25     1     1     2     0     0  2.557487516E+01  1.558278415E+02 -9.757401974E+01  2.237902584E+02  1.250000000E+02  0.00000E+00  9.000E+00
      25     1     1     2     0     0 -3.082562312E+01 -1.317684309E+02 -8.894603828E+01  2.045715918E+02  1.250000000E+02  0.00000E+00  9.000E+00
      21     1     1     2   501   511  5.250747962E+00 -2.405941055E+01 -4.084259620E+00  2.496210661E+01  3.722308873E-07  0.00000E+00  9.000E+00
#rwgt            1           1   2.2099764559142282E-002           5      436364           0
</event>
<event>
      5   9999  3.79277E-02  8.16399E+01 -1.00000E+00  1.27924E-01
       1    -1     0     0   502     0  0.000000000E+00  0.000000000E+00  7.776742423E+01  7.776742423E+01  0.000000000E+00  0.00000E+00  9.000E+00
      21    -1     0     0   501   502  0.000000000E+00  0.000000000E+00 -2.843720673E+03  2.843720673E+03  0.000000000E+00  0.00000E+00  9.000E+00
      25     1     1     2     0     0 -2.132392101E+02  3.144615671E+01 -1.365922535E+03  1.388462888E+03  1.250000000E+02  0.00000E+00  9.000E+00
      25     1     1     2     0     0  1.341185495E+02 -1.132154800E+01 -1.433186208E+03  1.444909572E+03  1.250000000E+02  0.00000E+00  9.000E+00
       1     1     1     2   501     0  7.912066060E+01 -2.012460871E+01  3.315549384E+01  8.811563756E+01  3.371747881E-06  0.00000E+00  9.000E+00
#rwgt            1           1   5.2477722829460387E-002           5      436516           0
</event>
<event>
      5   9999  3.79277E-02  2.97408E+01 -1.00000E+00  1.53302E-01
      21    -1     0     0   511   501  0.000000000E+00  0.000000000E+00  6.865055317E+02  6.865055317E+02  0.000000000E+00  0.00000E+00  9.000E+00
      21    -1     0     0   501   502  0.000000000E+00  0.000000000E+00 -1.875500088E+02  1.875500088E+02  0.000000000E+00  0.00000E+00  9.000E+00
      25     1     1     2     0     0  1.885659088E+02 -2.615078519E+01 -4.148388360E+01  2.314883974E+02  1.250000000E+02  0.00000E+00  9.000E+00
      25     1     1     2     0     0 -1.922619911E+02 -3.359466382E+00  2.105488709E+02  3.113387002E+02  1.250000000E+02  0.00000E+00  9.000E+00
      21     1     1     2   511   502  3.696082248E+00  2.951025157E+01  3.298905356E+02  3.312284430E+02  3.814697266E-06  0.00000E+00  9.000E+00
#rwgt            1           1   4.1077555523698642E-002           5      436658           0
</event>
<event>
      5   9999  3.79277E-02  1.17417E+02 -1.00000E+00  1.20771E-01
      21    -1     0     0   502   512  0.000000000E+00  0.000000000E+00  2.373034352E+02  2.373034352E+02  0.000000000E+00  0.00000E+00  9.000E+00
      21    -1     0     0   501   502  0.000000000E+00  0.000000000E+00 -4.663536534E+02  4.663536534E+02  0.000000000E+00  0.00000E+00  9.000E+00
      25     1     1     2     0     0 -1.275932402E+02  4.955934380E+01 -3.485666439E+02  3.947909178E+02  1.250000000E+02  0.00000E+00  9.000E+00
      25     1     1     2     0     0  1.575073881E+01 -8.530910027E+01  1.719657956E+01  1.531223390E+02  1.250000000E+02  0.00000E+00  9.000E+00
      21     1     1     2   501   512  1.118425014E+02  3.574975647E+01  1.023198461E+02  1.557438317E+02  1.348699152E-06  0.00000E+00  9.000E+00
#rwgt            1           1   4.3464961412708454E-002           5      436766           0
</event>
<event>
      5   9999  3.79277E-02  2.48614E+01 -1.00000E+00  1.58932E-01
       4    -1     0     0   502     0  0.000000000E+00  0.000000000E+00  9.476379620E+01  9.476379620E+01  0.000000000E+00  0.00000E+00  9.000E+00
      21    -1     0     0   501   502  0.000000000E+00  0.000000000E+00 -3.145167286E+02  3.145167286E+02  0.000000000E+00  0.00000E+00  9.000E+00
      25     1     1     2     0     0  9.748097901E+01 -1.631852041E+01 -5.291991774E+01  1.679117419E+02  1.250000000E+02  0.00000E+00  9.000E+00
      25     1     1     2     0     0 -7.294966790E+01  1.228050036E+01 -1.588759640E+02  2.152650382E+02  1.250000000E+02  0.00000E+00  9.000E+00
       4     1     1     2   501     0 -2.453131111E+01  4.038020042E+00 -7.957050642E+00  2.610374466E+01  5.264139692E-07  0.00000E+00  9.000E+00
#rwgt            1           1   5.4490993700722475E-002           5      436860           0
</event>
<event>
      5   9999  3.79277E-02  5.98235E+01 -1.00000E+00  1.34772E-01
      21    -1     0     0   511   501  0.000000000E+00  0.000000000E+00  1.105730157E+03  1.105730157E+03  0.000000000E+00  0.00000E+00  9.000E+00
      21    -1     0     0   501   502  0.000000000E+00  0.000000000E+00 -1.193810668E+02  1.193810668E+02  0.000000000E+00  0.00000E+00  9.000E+00
      25     1     1     2     0     0 -3.854624178E+00  1.367885124E+02  8.128817187E+01  2.023826133E+02  1.250000000E+02  0.00000E+00  9.000E+00
      25     1     1     2     0     0  9.771853437E+00 -1.963186423E+02  1.778818230E+02  2.930928887E+02  1.250000000E+02  0.00000E+00  9.000E+00
      21     1     1     2   511   502 -5.917229259E+00  5.953012986E+01  7.271790950E+02  7.296357215E+02  1.525878906E-05  0.00000E+00  9.000E+00
#rwgt            1           1   3.5372156284784399E-002           5      437071           0
</event>
<event>
      5   9999  3.79277E-02  4.98641E+01 -1.00000E+00  1.39143E-01
       1    -1     0     0   502     0  0.000000000E+00  0.000000000E+00  1.240290578E+03  1.240290578E+03  0.000000000E+00  0.00000E+00  9.000E+00
      21    -1     0     0   501   502  0.000000000E+00  0.000000000E+00 -9.340607130E+01  9.340607130E+01  0.000000000E+00  0.00000E+00  9.000E+00
      25     1     1     2     0     0  1.451831021E+02 -2.929578215E+01  2.161073519E+02  2.902822136E+02  1.250000000E+02  0.00000E+00  9.000E+00
      25     1     1     2     0     0 -1.092798439E+02  6.389900849E+01  8.677319786E+01  1.979387669E+02  1.250000000E+02  0.00000E+00  9.000E+00
       1     1     1     2   501     0 -3.590325824E+01 -3.460322634E+01  8.440039566E+02  8.454756685E+02  1.078959322E-05  0.00000E+00  9.000E+00
#rwgt            1           1   3.9796270478970407E-002           5      437154           0
</event>
<event>
      5   9999  3.79277E-02  3.17964E+01 -1.00000E+00  1.51306E-01
       1    -1     0     0   502     0  0.000000000E+00  0.000000000E+00  6.044455970E+01  6.044455970E+01  0.000000000E+00  0.00000E+00  9.000E+00
      21    -1     0     0   501   502  0.000000000E+00  0.000000000E+00 -7.657763745E+02  7.657763745E+02  0.000000000E+00  0.00000E+00  9.000E+00
      25     1     1     2     0     0  1.980532893E+00  6.335261079E+01 -1.656258052E+02  2.169663180E+02  1.250000000E+02  0.00000E+00  9.000E+00
      25     1     1     2     0     0  1.095234983E+01 -9.239996798E+01 -5.531887701E+02  5.747177772E+02  1.250000000E+02  0.00000E+00  9.000E+00
       1     1     1     2   501     0 -1.293288272E+01  2.904735719E+01  1.348276053E+01  3.453683898E+01  1.155776944E-06  0.00000E+00  9.000E+00
#rwgt            1           1   4.7331671364876933E-002           5      437238           0
</event>
<event>
      5   9999  3.79277E-02  1.43833E+01 -1.00000E+00  1.79119E-01
      21    -1     0     0   511   501  0.000000000E+00  0.000000000E+00  1.089833928E+02  1.089833928E+02  0.000000000E+00  0.00000E+00  9.000E+00
      21    -1     0     0   501   502  0.000000000E+00  0.000000000E+00 -7.172483611E+02  7.172483611E+02  0.000000000E+00  0.00000E+00  9.000E+00
      25     1     1     2     0     0  3.898099700E+01 -6.019267393E+01 -6.460356304E+02  6.619136740E+02  1.250000000E+02  0.00000E+00  9.000E+00
      25     1     1     2     0     0 -2.462063039E+01  6.100394587E+01  2.197157091E+01  1.429524634E+02  1.250000000E+02  0.00000E+00  9.000E+00
      21     1     1     2   511   502 -1.436036661E+01 -8.112719458E-01  1.579909113E+01  2.136561658E+01  5.057621821E-07  0.00000E+00  9.000E+00
#rwgt            1           1   3.1009109729057738E-002           5      437357           0
</event>
<event>
      5   9999  3.79277E-02  6.52897E+01 -1.00000E+00  1.32771E-01
      21    -1     0     0   502   501  0.000000000E+00  0.000000000E+00  5.259411577E+02  5.259411577E+02  0.000000000E+00  0.00000E+00  9.000E+00
      21    -1     0     0   512   502  0.000000000E+00  0.000000000E+00 -3.084169757E+02  3.084169757E+02  0.000000000E+00  0.00000E+00  9.000E+00
      25     1     1     2     0     0  2.048913962E+02 -5.058736629E+01 -5.469372617E+01  2.513085146E+02  1.250000000E+02  0.00000E+00  9.000E+00
      25     1     1     2     0     0 -1.677530344E+02  1.042854373E+02  3.863505089E+02  4.515620098E+02  1.250000000E+02  0.00000E+00  9.000E+00
      21     1     1     2   512   501 -3.713836176E+01 -5.369807104E+01 -1.141326007E+02  1.314876089E+02  1.348699152E-06  0.00000E+00  9.000E+00
#rwgt            1           1   3.6938581725966306E-002           5      437703           0
</event>
<event>
      5   9999  3.79277E-02  3.68254E+00 -1.00000E+00  2.72230E-01
      21    -1     0     0   502   501  0.000000000E+00  0.000000000E+00  6.946943632E+02  6.946943632E+02  0.000000000E+00  0.00000E+00  9.000E+00
      21    -1     0     0   511   502  0.000000000E+00  0.000000000E+00 -1.044070076E+02  1.044070076E+02  0.000000000E+00  0.00000E+00  9.000E+00
      25     1     1     2     0     0  6.675987533E+01  8.471372637E+01  1.348537698E+02  2.131755981E+02  1.250000000E+02  0.00000E+00  9.000E+00
      25     1     1     2     0     0 -6.317037504E+01 -8.553627617E+01  5.076821112E+02  5.335476332E+02  1.250000000E+02  0.00000E+00  9.000E+00
      21     1     1     2   511   501 -3.589500294E+00  8.225498014E-01 -5.224852541E+01  5.237813960E+01  1.907348633E-06  0.00000E+00  9.000E+00
#rwgt            1           1   3.2618883643177880E-002           5      437798           0
</event>
<event>
      5   9999  3.79277E-02  7.12485E+01 -1.00000E+00  1.30833E-01
      21    -1     0     0   502   501  0.000000000E+00  0.000000000E+00  5.450196994E+02  5.450196994E+02  0.000000000E+00  0.00000E+00  9.000E+00
      21    -1     0     0   512   502  0.000000000E+00  0.000000000E+00 -5.642398553E+02  5.642398553E+02  0.000000000E+00  0.00000E+00  9.000E+00
      25     1     1     2     0     0  2.205762871E+02  5.573115945E+01  3.505007746E+02  4.361601238E+02  1.250000000E+02  0.00000E+00  9.000E+00
      25     1     1     2     0     0 -2.250875930E+02  1.537438845E+01  3.666153935E+01  2.605184539E+02  1.250000000E+02  0.00000E+00  9.000E+00
      21     1     1     2   512   501  4.511305954E+00 -7.110554790E+01 -4.063824698E+02  4.125809770E+02  7.629394531E-06  0.00000E+00  9.000E+00
#rwgt            1           1   2.9655582049714562E-002           5      438232           0
</event>
<event>
      5   9999  3.79277E-02  1.91014E+01 -1.00000E+00  1.68033E-01
      21    -1     0     0   502   501  0.000000000E+00  0.000000000E+00  6.121416012E+02  6.121416012E+02  0.000000000E+00  0.00000E+00  9.000E+00
      21    -1     0     0   511   502  0.000000000E+00  0.000000000E+00 -2.109470171E+02  2.109470171E+02  0.000000000E+00  0.00000E+00  9.000E+00
      25     1     1     2     0     0  9.508144745E+00  1.347992739E+02  3.461903278E+02  3.920892655E+02  1.250000000E+02  0.00000E+00  9.000E+00
      25     1     1     2     0     0 -2.742789736E+01 -1.281850819E+02  2.085741630E+02  2.762460611E+02  1.250000000E+02  0.00000E+00  9.000E+00
      21     1     1     2   511   501  1.791975261E+01 -6.614192037E+00 -1.535699066E+02  1.547532917E+02  3.303624740E-06  0.00000E+00  9.000E+00
#rwgt            1           1  0.12675771182154222                5      438479           0
</event>
<event>
      5   9999  3.79277E-02  5.63435E+01 -1.00000E+00  1.36179E-01
      21    -1     0     0   512   501  0.000000000E+00  0.000000000E+00  1.866166600E+02  1.866166600E+02  0.000000000E+00  0.00000E+00  9.000E+00
      21    -1     0     0   501   502  0.000000000E+00  0.000000000E+00 -5.607068520E+02  5.607068520E+02  0.000000000E+00  0.00000E+00  9.000E+00
      25     1     1     2     0     0  8.841392366E+01  8.333946914E+01 -3.845674248E+02  4.222316819E+02  1.250000000E+02  0.00000E+00  9.000E+00
      25     1     1     2     0     0 -1.084553336E+02 -1.359981471E+02 -7.132239396E+01  2.257652304E+02  1.250000000E+02  0.00000E+00  9.000E+00
      21     1     1     2   512   502  2.004140994E+01  5.265867793E+01  8.179962669E+01  9.932659966E+01  2.132480600E-06  0.00000E+00  9.000E+00
#rwgt            1           1   2.9377991982883732E-002           5      438663           0
</event>
<event>
      5   9999  3.79277E-02  2.37372E+01 -1.00000E+00  1.60456E-01
      21    -1     0     0   502   501  0.000000000E+00  0.000000000E+00  2.371079436E+02  2.371079436E+02  0.000000000E+00  0.00000E+00  9.000E+00
      21    -1     0     0   501   511  0.000000000E+00  0.000000000E+00 -1.844318124E+02  1.844318124E+02  0.000000000E+00  0.00000E+00  9.000E+00
      25     1     1     2     0     0  8.586820968E+01 -8.410595328E+01  9.237637537E+01  1.964829650E+02  1.250000000E+02  0.00000E+00  9.000E+00
      25     1     1     2     0     0 -1.094316918E+02  8.697261139E+01 -1.104528760E+01  1.878470886E+02  1.250000000E+02  0.00000E+00  9.000E+00
      21     1     1     2   502   511  2.356348211E+01 -2.866658108E+00 -2.865495653E+01  3.720970239E+01  0.000000000E+00  0.00000E+00  9.000E+00
#rwgt            1           1   4.9414902412355806E-002           5      438757           0
</event>
<event>
      5   9999  3.79277E-02  1.01769E+02 -1.00000E+00  1.23486E-01
      21    -1     0     0   502   501  0.000000000E+00  0.000000000E+00  5.982332138E+02  5.982332138E+02  0.000000000E+00  0.00000E+00  9.000E+00
      21    -1     0     0   501   512  0.000000000E+00  0.000000000E+00 -2.516628422E+02  2.516628422E+02  0.000000000E+00  0.00000E+00  9.000E+00
      25     1     1     2     0     0  2.438841363E+01  1.177317632E+02  1.672810221E+02  2.409636967E+02  1.250000000E+02  0.00000E+00  9.000E+00
      25     1     1     2     0     0  5.519673389E+00 -2.045692615E+01  3.709012350E+02  3.919715280E+02  1.250000000E+02  0.00000E+00  9.000E+00
      21     1     1     2   502   512 -2.990808701E+01 -9.727483709E+01 -1.916118855E+02  2.169608312E+02  2.697398305E-06  0.00000E+00  9.000E+00
#rwgt            1           1   5.0669634756444794E-002           5      438859           0
</event>
<event>
      5   9999  3.79277E-02  1.64534E+01 -1.00000E+00  1.73681E-01
      21    -1     0     0   502   511  0.000000000E+00  0.000000000E+00  5.025758455E+01  5.025758455E+01  0.000000000E+00  0.00000E+00  9.000E+00
      21    -1     0     0   501   502  0.000000000E+00  0.000000000E+00 -7.036707619E+02  7.036707619E+02  0.000000000E+00  0.00000E+00  9.000E+00
      25     1     1     2     0     0 -6.451681682E+01 -4.032318825E+01 -5.203403326E+02  5.405251529E+02  1.250000000E+02  0.00000E+00  9.000E+00
      25     1     1     2     0     0  7.773883333E+01  3.053066490E+01 -1.213631522E+02  1.932083394E+02  1.250000000E+02  0.00000E+00  9.000E+00
      21     1     1     2   501   511 -1.322201651E+01  9.792523352E+00 -1.170969253E+01  2.019485414E+01  4.460403188E-07  0.00000E+00  9.000E+00
#rwgt            1           1   4.6668884074934476E-002           5      438956           0
</event>
<event>
      5   9999  3.79277E-02  2.40149E+01 -1.00000E+00  1.60070E-01
      21    -1     0     0   502   501  0.000000000E+00  0.000000000E+00  7.105203653E+02  7.105203653E+02  0.000000000E+00  0.00000E+00  9.000E+00
      21    -1     0     0   512   502  0.000000000E+00  0.000000000E+00 -6.211679629E+02  6.211679629E+02  0.000000000E+00  0.00000E+00  9.000E+00
      25     1     1     2     0     0  1.248423169E+02  7.482237006E+01  4.950935735E+02  5.309676428E+02  1.250000000E+02  0.00000E+00  9.000E+00
      25     1     1     2     0     0 -1.485531722E+02 -7.101285124E+01  1.430562921E+02  2.513980364E+02  1.250000000E+02  0.00000E+00  9.000E+00
      21     1     1     2   512   501  2.371085531E+01 -3.809518818E+00 -5.487974632E+02  5.493226490E+02  0.000000000E+00  0.00000E+00  9.000E+00
#rwgt            1           1   4.3119286043230058E-002           5      439134           0
</event>
<event>
      5   9999  3.79277E-02  8.38115E+01 -1.00000E+00  1.27379E-01
       2    -1     0     0   502     0  0.000000000E+00  0.000000000E+00  4.953037525E+02  4.953037525E+02  0.000000000E+00  0.00000E+00  9.000E+00
      21    -1     0     0   501   502  0.000000000E+00  0.000000000E+00 -1.701305900E+02  1.701305900E+02  0.000000000E+00  0.00000E+00  9.000E+00
      25     1     1     2     0     0 -1.323054172E+02 -2.797036543E+00  2.252788323E+02  2.896344232E+02  1.250000000E+02  0.00000E+00  9.000E+00
      25     1     1     2     0     0  8.085359130E+01  6.895657553E+01 -7.610998223E+01  1.808591771E+02  1.250000000E+02  0.00000E+00  9.000E+00
       2     1     1     2   501     0  5.145182593E+01 -6.615953898E+01  1.760043124E+02  1.949407422E+02  1.907348633E-06  0.00000E+00  9.000E+00
#rwgt            1           1   3.8590818399378474E-002           5      439355           0
</event>
<event>
      5   9999  3.79277E-02  3.46828E+01 -1.00000E+00  1.48790E-01
      21    -1     0     0   502   501  0.000000000E+00  0.000000000E+00  1.131221883E+02  1.131221883E+02  0.000000000E+00  0.00000E+00  9.000E+00
      21    -1     0     0   511   502  0.000000000E+00  0.000000000E+00 -3.529917181E+02  3.529917181E+02  0.000000000E+00  0.00000E+00  9.000E+00
      25     1     1     2     0     0  9.661861636E+01 -7.435631155E+01 -1.034012711E+02  2.029306309E+02  1.250000000E+02  0.00000E+00  9.000E+00
      25     1     1     2     0     0 -1.225720369E+02  5.134938749E+01 -8.537718401E+01  2.014321905E+02  1.250000000E+02  0.00000E+00  9.000E+00
      21     1     1     2   511   501  2.595342054E+01  2.300692405E+01 -5.109107468E+01  6.175108504E+01  0.000000000E+00  0.00000E+00  9.000E+00
#rwgt            1           1   4.5695311784509689E-002           5      439492           0
</event>
<event>
      5   9999 -3.79277E-02  7.54836E+00 -1.00000E+00  2.11026E-01
      21    -1     0     0   502   501  0.000000000E+00  0.000000000E+00  5.617686020E+01  5.617686020E+01  0.000000000E+00  0.00000E+00  9.000E+00
      21    -1     0     0   512   502  0.000000000E+00  0.000000000E+00 -8.066732889E+02  8.066732889E+02  0.000000000E+00  0.00000E+00  9.000E+00
      25     1     1     2     0     0  9.887219332E+01  3.664058395E+01 -1.277889775E+02  2.075409978E+02  1.250000000E+02  0.00000E+00  9.000E+00
      25     1     1     2     0     0 -9.728461093E+01 -4.402010729E+01 -3.998985869E+02  4.323724612E+02  1.250000000E+02  0.00000E+00  9.000E+00
      21     1     1     2   512   501 -1.587582384E+00  7.379523339E+00 -2.228088643E+02  2.229366901E+02  0.000000000E+00  0.00000E+00  9.000E+00
#rwgt            1           1  -5.6454394248309385E-002           5      439598           0
</event>
<event>
      5   9999  3.79277E-02  3.55141E+00 -1.00000E+00  2.76268E-01
      21    -1     0     0   511   501  0.000000000E+00  0.000000000E+00  1.433203488E+02  1.433203488E+02  0.000000000E+00  0.00000E+00  9.000E+00
      21    -1     0     0   501   502  0.000000000E+00  0.000000000E+00 -6.935883669E+02  6.935883669E+02  0.000000000E+00  0.00000E+00  9.000E+00
      25     1     1     2     0     0  2.230264119E+02 -9.133060187E+01 -4.221512541E+02  5.019150731E+02  1.250000000E+02  0.00000E+00  9.000E+00
      25     1     1     2     0     0 -2.249893792E+02  9.429021252E+01 -1.502430673E+02  3.125841393E+02  1.250000000E+02  0.00000E+00  9.000E+00
      21     1     1     2   511   502  1.962967303E+00 -2.959610647E+00  2.212630338E+01  2.240950327E+01  5.840038640E-07  0.00000E+00  9.000E+00
#rwgt            1           1   4.5105326947873572E-002           5      439795           0
</event>
<event>
      5   9999  3.79277E-02  9.17276E+00 -1.00000E+00  2.00194E-01
      21    -1     0     0   502   512  0.000000000E+00  0.000000000E+00  2.653448769E+02  2.653448769E+02  0.000000000E+00  0.00000E+00  9.000E+00
      21    -1     0     0   501   502  0.000000000E+00  0.000000000E+00 -2.260097196E+02  2.260097196E+02  0.000000000E+00  0.00000E+00  9.000E+00
      25     1     1     2     0     0  4.820870193E+01 -9.206336170E+01 -1.588724225E+02  2.272997759E+02  1.250000000E+02  0.00000E+00  9.000E+00
      25     1     1     2     0     0 -3.906217305E+01  9.275655785E+01  1.673529364E+02  2.318655596E+02  1.250000000E+02  0.00000E+00  9.000E+00
      21     1     1     2   501   512 -9.146528879E+00 -6.931961453E-01  3.085464335E+01  3.218926106E+01  7.539457465E-07  0.00000E+00  9.000E+00
#rwgt            1           1   4.7466477526458072E-002           5      440286           0
</event>
<event>
      5   9999  3.79277E-02  5.77988E+01 -1.00000E+00  1.35577E-01
      21    -1     0     0   502   501  0.000000000E+00  0.000000000E+00  1.345368000E+02  1.345368000E+02  0.000000000E+00  0.00000E+00  9.000E+00
      21    -1     0     0   501   511  0.000000000E+00  0.000000000E+00 -4.584337331E+02  4.584337331E+02  0.000000000E+00  0.00000E+00  9.000E+00
      25     1     1     2     0     0 -1.536199018E+02  3.980409313E+01 -1.167015504E+02  2.332974323E+02  1.250000000E+02  0.00000E+00  9.000E+00
      25     1     1     2     0     0  1.884256434E+02  6.339889151E+00 -1.228184573E+02  2.573981172E+02  1.250000000E+02  0.00000E+00  9.000E+00
      21     1     1     2   502   511 -3.480574158E+01 -4.614398228E+01 -8.437692541E+01  1.022749837E+02  1.651812370E-06  0.00000E+00  9.000E+00
#rwgt            1           1   3.6029316956118843E-002           5      440636           0
</event>
<event>
      5   9999 -3.79277E-02  1.07621E+01 -1.00000E+00  1.92141E-01
      21    -1     0     0   502   512  0.000000000E+00  0.000000000E+00  9.707418410E+02  9.707418410E+02  0.000000000E+00  0.00000E+00  9.000E+00
      21    -1     0     0   501   502  0.000000000E+00  0.000000000E+00 -6.927821867E+01  6.927821867E+01  0.000000000E+00  0.00000E+00  9.000E+00
      25     1     1     2     0     0 -1.395497887E+02  4.878960927E+01  1.070858594E+02  2.212395778E+02  1.250000000E+02  0.00000E+00  9.000E+00
      25     1     1     2     0     0  1.326184181E+02 -4.055682390E+01  7.292918620E+02  7.528108134E+02  1.250000000E+02  0.00000E+00  9.000E+00
      21     1     1     2   501   512  6.931370643E+00 -8.232785371E+00  6.508590095E+01  6.596966846E+01  9.536743164E-07  0.00000E+00  9.000E+00
#rwgt            1           1  -6.6751335646800802E-002           5      440862           0
</event>
<event>
      5   9999  3.79277E-02  5.19127E+01 -1.00000E+00  1.38152E-01
      21    -1     0     0   502   511  0.000000000E+00  0.000000000E+00  1.738029324E+02  1.738029324E+02  0.000000000E+00  0.00000E+00  9.000E+00
      21    -1     0     0   501   502  0.000000000E+00  0.000000000E+00 -1.074010702E+03  1.074010702E+03  0.000000000E+00  0.00000E+00  9.000E+00
      25     1     1     2     0     0 -1.249278250E+02 -1.069108437E+02 -6.108956439E+02  6.448684964E+02  1.250000000E+02  0.00000E+00  9.000E+00
      25     1     1     2     0     0  1.046695646E+02  1.547075937E+02 -4.122271307E+02  4.695171611E+02  1.250000000E+02  0.00000E+00  9.000E+00
      21     1     1     2   501   511  2.025826037E+01 -4.779675006E+01  1.229150052E+02  1.334279766E+02  0.000000000E+00  0.00000E+00  9.000E+00
#rwgt            1           1   2.8174685857113226E-002           5      441130           0
</event>
<event>
      5   9999  3.79277E-02  4.00106E+01 -1.00000E+00  1.44833E-01
      21    -1     0     0   502   501  0.000000000E+00  0.000000000E+00  1.424764057E+03  1.424764057E+03  0.000000000E+00  0.00000E+00  9.000E+00
      21    -1     0     0   501   512  0.000000000E+00  0.000000000E+00 -9.612056638E+01  9.612056638E+01  0.000000000E+00  0.00000E+00  9.000E+00
      25     1     1     2     0     0  3.294559107E+02 -1.725565406E+01  7.502279988E+02  8.290392058E+02  1.250000000E+02  0.00000E+00  9.000E+00
      25     1     1     2     0     0 -3.010278141E+02  4.541036903E+01  5.556940874E+02  6.458333882E+02  1.250000000E+02  0.00000E+00  9.000E+00
      21     1     1     2   502   512 -2.842809659E+01 -2.815471497E+01  2.272140487E+01  4.601202984E+01  9.536743164E-07  0.00000E+00  9.000E+00
#rwgt            1           1   2.8014776453171464E-002           5      441290           0
</event>
<event>
      5   9999  3.79277E-02  5.58806E+01 -1.00000E+00  1.36375E-01
      21    -1     0     0   502   501  0.000000000E+00  0.000000000E+00  1.213857965E+02  1.213857965E+02  0.000000000E+00  0.00000E+00  9.000E+00
      21    -1     0     0   501   511  0.000000000E+00  0.000000000E+00 -6.651096211E+02  6.651096211E+02  0.000000000E+00  0.00000E+00  9.000E+00
      25     1     1     2     0     0 -1.624998759E+02 -1.399990904E+01 -1.034344307E+02  2.300562726E+02  1.250000000E+02  0.00000E+00  9.000E+00
      25     1     1     2     0     0  1.067071907E+02  1.086719255E+01 -6.509621561E+01  1.771074185E+02  1.250000000E+02  0.00000E+00  9.000E+00
      21     1     1     2   502   511  5.579268523E+01  3.132716495E+00 -3.751931783E+02  3.793317264E+02  5.394796609E-06  0.00000E+00  9.000E+00
#rwgt            1           1   1.6991404001250415E-002           5      441458           0
</event>
<event>
      5   9999  3.79277E-02  9.73413E+01 -1.00000E+00  1.24357E-01
      21    -1     0     0   512   501  0.000000000E+00  0.000000000E+00  1.103225011E+03  1.103225011E+03  0.000000000E+00  0.00000E+00  9.000E+00
      21    -1     0     0   501   502  0.000000000E+00  0.000000000E+00 -2.037847922E+02  2.037847922E+02  0.000000000E+00  0.00000E+00  9.000E+00
      25     1     1     2     0     0  2.589597971E+02 -1.387609262E+02  5.650852574E+02  6.490463152E+02  1.250000000E+02  0.00000E+00  9.000E+00
      25     1     1     2     0     0 -2.076661084E+02  2.214910930E+02  2.007629585E+01  3.289552774E+02  1.250000000E+02  0.00000E+00  9.000E+00
      21     1     1     2   512   502 -5.129368874E+01 -8.273016677E+01  3.142786660E+02  3.290082110E+02  3.814697266E-06  0.00000E+00  9.000E+00
#rwgt            1           1   4.8687959798571018E-002           5      441568           0
</event>
<event>
      5   9999  3.79277E-02  1.39723E+02 -1.00000E+00  1.17628E-01
      21    -1     0     0   511   501  0.000000000E+00  0.000000000E+00  8.173162833E+02  8.173162833E+02  0.000000000E+00  0.00000E+00  9.000E+00
      21    -1     0     0   501   502  0.000000000E+00  0.000000000E+00 -2.005219949E+02  2.005219949E+02  0.000000000E+00  0.00000E+00  9.000E+00
      25     1     1     2     0     0 -1.348184153E+02 -2.088679961E+02  1.624367439E+02  3.221995355E+02  1.250000000E+02  0.00000E+00  9.000E+00
      25     1     1     2     0     0  1.325225908E+01  2.777458020E+02  1.101523936E+02  3.241556767E+02  1.250000000E+02  0.00000E+00  9.000E+00
      21     1     1     2   511   502  1.215661562E+02 -6.887780589E+01  3.442051509E+02  3.714830661E+02  0.000000000E+00  0.00000E+00  9.000E+00
#rwgt            1           1   3.5507634622626856E-002           5      441624           0
</event>
<event>
      5   9999  3.79277E-02  2.91650E+01 -1.00000E+00  1.53896E-01
      21    -1     0     0   512   501  0.000000000E+00  0.000000000E+00  8.969685015E+01  8.969685015E+01  0.000000000E+00  0.00000E+00  9.000E+00
      21    -1     0     0   501   502  0.000000000E+00  0.000000000E+00 -3.742391305E+02  3.742391305E+02  0.000000000E+00  0.00000E+00  9.000E+00
      25     1     1     2     0     0  1.267786856E+01 -1.237604025E+01 -2.806201622E+02  3.077118297E+02  1.250000000E+02  0.00000E+00  9.000E+00
      25     1     1     2     0     0  1.373704603E+01  1.292539299E-02  4.609254207E+00  1.258370050E+02  1.250000000E+02  0.00000E+00  9.000E+00
      21     1     1     2   512   502 -2.641491458E+01  1.236311486E+01 -8.531372301E+00  3.038714588E+01  7.633118912E-07  0.00000E+00  9.000E+00
#rwgt            1           1   3.8673081925949711E-002           5      441677           0
</event>
<event>
      5   9999  3.79277E-02  9.60541E+00 -1.00000E+00  1.97800E-01
      21    -1     0     0   502   511  0.000000000E+00  0.000000000E+00  3.348339735E+02  3.348339735E+02  0.000000000E+00  0.00000E+00  9.000E+00
      21    -1     0     0   501   502  0.000000000E+00  0.000000000E+00 -5.013186385E+02  5.013186385E+02  0.000000000E+00  0.00000E+00  9.000E+00
      25     1     1     2     0     0 -1.024836804E+02 -3.046631248E+02 -2.554174122E+02  4.291684737E+02  1.250000000E+02  0.00000E+00  9.000E+00
      25     1     1     2     0     0  9.618633234E+01  3.119162166E+02  3.395273078E+01  3.511713608E+02  1.250000000E+02  0.00000E+00  9.000E+00
      21     1     1     2   501   511  6.297348060E+00 -7.253091772E+00  5.498001634E+01  5.581277747E+01  9.536743164E-07  0.00000E+00  9.000E+00
#rwgt            1           1   4.4751960743209876E-002           5      441797           0
</event>
<event>
      5   9999 -3.79277E-02  9.40949E+01 -1.00000E+00  1.25029E-01
       1    -1     0     0   502     0  0.000000000E+00  0.000000000E+00  7.504484885E+02  7.504484885E+02  0.000000000E+00  0.00000E+00  9.000E+00
      21    -1     0     0   501   502  0.000000000E+00  0.000000000E+00 -1.677359942E+02  1.677359942E+02  0.000000000E+00  0.00000E+00  9.000E+00
      25     1     1     2     0     0 -2.078887635E+02  1.261573445E+02  2.573870354E+02  3.755083216E+02  1.250000000E+02  0.00000E+00  9.000E+00
      25     1     1     2     0     0  2.111860559E+02 -3.212024085E+01  5.105121212E+01  2.527102814E+02  1.250000000E+02  0.00000E+00  9.000E+00
       1     1     1     2   501     0 -3.297292418E+00 -9.403710365E+01  2.742742467E+02  2.899658797E+02  5.394796609E-06  0.00000E+00  9.000E+00
#rwgt            1           1  -2.6871171656277708E-003           5      442056           0
</event>
<event>
      5   9999  3.79277E-02  1.45138E+01 -1.00000E+00  1.78742E-01
      21    -1     0     0   511   501  0.000000000E+00  0.000000000E+00  2.748657647E+02  2.748657647E+02  0.000000000E+00  0.00000E+00  9.000E+00
      21    -1     0     0   501   502  0.000000000E+00  0.000000000E+00 -3.192738655E+02  3.192738655E+02  0.000000000E+00  0.00000E+00  9.000E+00
      25     1     1     2     0     0  2.169456004E+02  1.962987888E+01  3.043922515E+01  2.529867034E+02  1.250000000E+02  0.00000E+00  9.000E+00
      25     1     1     2     0     0 -2.295817003E+02 -1.248994493E+01 -1.242220139E+02  2.896892552E+02  1.250000000E+02  0.00000E+00  9.000E+00
      21     1     1     2   511   502  1.263609991E+01 -7.139933948E+00  4.937468799E+01  5.146367157E+01  1.168007728E-06  0.00000E+00  9.000E+00
#rwgt            1           1   3.2320021357216365E-002           5      442152           0
</event>
<event>
      5   9999  3.79277E-02  3.09379E+01 -1.00000E+00  1.52117E-01
      21    -1     0     0   512   501  0.000000000E+00  0.000000000E+00  1.529556381E+02  1.529556381E+02  0.000000000E+00  0.00000E+00  9.000E+00
      21    -1     0     0   501   502  0.000000000E+00  0.000000000E+00 -1.650695498E+03  1.650695498E+03  0.000000000E+00  0.00000E+00  9.000E+00
      25     1     1     2     0     0  1.545019788E+01 -2.294951181E+02 -7.806820354E+02  8.234052212E+02  1.250000000E+02  0.00000E+00  9.000E+00
      25     1     1     2     0     0  1.141586280E+01  2.141534035E+02 -8.283450111E+02  8.647383764E+02  1.250000000E+02  0.00000E+00  9.000E+00
      21     1     1     2   512   502 -2.686606068E+01  1.534171458E+01  1.112871869E+02  1.155075383E+02  6.180515955E-06  0.00000E+00  9.000E+00
#rwgt            1           1   3.3147224692441878E-002           5      442316           0
</event>
<event>
      5   9999  3.79277E-02  6.30235E+00 -1.00000E+00  2.22206E-01
      21    -1     0     0   502   501  0.000000000E+00  0.000000000E+00  5.170203453E+02  5.170203453E+02  0.000000000E+00  0.00000E+00  9.000E+00
      21    -1     0     0   511   502  0.000000000E+00  0.000000000E+00 -6.853900083E+01  6.853900083E+01  0.000000000E+00  0.00000E+00  9.000E+00
      25     1     1     2     0     0 -5.170724957E+01  1.169478566E+02  1.591158691E+02  2.393601902E+02  1.250000000E+02  0.00000E+00  9.000E+00
      25     1     1     2     0     0  5.055019448E+01 -1.231430793E+02  2.851827423E+02  3.386351084E+02  1.250000000E+02  0.00000E+00  9.000E+00
      21     1     1     2   511   501  1.157055091E+00  6.195222638E+00  4.182733121E+00  7.564047619E+00  1.192092896E-07  0.00000E+00  9.000E+00
#rwgt            1           1   4.0040298422316434E-002           5      442514           0
</event>
<event>
      5   9999  3.79277E-02  9.32050E+01 -1.00000E+00  1.25218E-01
      21    -1     0     0   502   501  0.000000000E+00  0.000000000E+00  6.429886743E+01  6.429886743E+01  0.000000000E+00  0.00000E+00  9.000E+00
       1    -1     0     0   501     0  0.000000000E+00  0.000000000E+00 -1.545370143E+03  1.545370143E+03  0.000000000E+00  0.00000E+00  9.000E+00
      25     1     1     2     0     0 -6.529323897E+01 -1.328826848E+02 -3.528994802E+02  4.025966444E+02  1.250000000E+02  0.00000E+00  9.000E+00
      25     1     1     2     0     0  1.122904780E+02  2.133714440E+02 -4.740021126E+02  5.462961901E+02  1.250000000E+02  0.00000E+00  9.000E+00
       1     1     1     2   502     0 -4.699723899E+01 -8.048875922E+01 -6.541696830E+02  6.607761762E+02  7.629394531E-06  0.00000E+00  9.000E+00
#rwgt            2          12   1.2143914467043901E-004           5      442803           0
</event>
<event>
      5   9999  3.79277E-02  1.79105E+01 -1.00000E+00  1.70423E-01
      21    -1     0     0   502   501  0.000000000E+00  0.000000000E+00  5.195885642E+02  5.195885642E+02  0.000000000E+00  0.00000E+00  9.000E+00
      21    -1     0     0   501   511  0.000000000E+00  0.000000000E+00 -6.793323573E+02  6.793323573E+02  0.000000000E+00  0.00000E+00  9.000E+00
      25     1     1     2     0     0  2.282998729E+02  5.640819529E+01 -2.786595166E+01  2.677764511E+02  1.250000000E+02  0.00000E+00  9.000E+00
      25     1     1     2     0     0 -2.339602024E+02 -7.340071669E+01  3.520607874E+02  4.468745233E+02  1.250000000E+02  0.00000E+00  9.000E+00
      21     1     1     2   502   511  5.660329480E+00  1.699252140E+01 -4.839386289E+02  4.842699471E+02  5.394796609E-06  0.00000E+00  9.000E+00
#rwgt            1           1   2.5055859484819733E-002           5      442867           0
</event>
<event>
      5   9999  3.79277E-02  5.89367E+01 -1.00000E+00  1.35120E-01
      21    -1     0     0   512   501  0.000000000E+00  0.000000000E+00  4.604035700E+02  4.604035700E+02  0.000000000E+00  0.00000E+00  9.000E+00
      21    -1     0     0   501   502  0.000000000E+00  0.000000000E+00 -1.043576377E+02  1.043576377E+02  0.000000000E+00  0.00000E+00  9.000E+00
      25     1     1     2     0     0 -5.895305062E+01 -1.063977579E+02  1.028657743E+02  2.024902778E+02  1.250000000E+02  0.00000E+00  9.000E+00
      25     1     1     2     0     0  1.004586630E+02  6.455491712E+01  1.036928995E+02  2.015849639E+02  1.250000000E+02  0.00000E+00  9.000E+00
      21     1     1     2   512   502 -4.150561236E+01  4.184284079E+01  1.494872585E+02  1.606859659E+02  1.907348633E-06  0.00000E+00  9.000E+00
#rwgt            1           1   4.7259458215179864E-002           5      443104           0
</event>
<event>
      5   9999  3.79277E-02  2.59377E+01 -1.00000E+00  1.57562E-01
      21    -1     0     0   502   501  0.000000000E+00  0.000000000E+00  3.073758034E+02  3.073758034E+02  0.000000000E+00  0.00000E+00  9.000E+00
      21    -1     0     0   501   511  0.000000000E+00  0.000000000E+00 -1.358859772E+02  1.358859772E+02  0.000000000E+00  0.00000E+00  9.000E+00
      25     1     1     2     0     0 -2.403635103E+01  8.325426846E+01 -4.768756176E+01  1.593992564E+02  1.250000000E+02  0.00000E+00  9.000E+00
      25     1     1     2     0     0  2.357000723E+01 -5.732072368E+01  2.168017364E+02  2.578162204E+02  1.250000000E+02  0.00000E+00  9.000E+00
      21     1     1     2   502   511  4.663437934E-01 -2.593354478E+01  2.375651613E+00  2.604630380E+01  1.861154437E-07  0.00000E+00  9.000E+00
#rwgt            1           1   2.9539042851216231E-002           5      443393           0
</event>
<event>
      5   9999  3.79277E-02  2.20978E+01 -1.00000E+00  1.62872E-01
      21    -1     0     0   502   501  0.000000000E+00  0.000000000E+00  2.042488666E+02  2.042488666E+02  0.000000000E+00  0.00000E+00  9.000E+00
      21    -1     0     0   501   512  0.000000000E+00  0.000000000E+00 -2.583647752E+02  2.583647752E+02  0.000000000E+00  0.00000E+00  9.000E+00
      25     1     1     2     0     0  7.399788397E+01  1.396940624E+02  3.841831286E+01  2.051611188E+02  1.250000000E+02  0.00000E+00  9.000E+00
      25     1     1     2     0     0 -9.124653272E+01 -1.535070362E+02 -8.115786243E+01  2.325982342E+02  1.250000000E+02  0.00000E+00  9.000E+00
      21     1     1     2   502   512  1.724864875E+01  1.381297379E+01 -1.137635904E+01  2.485428884E+01  5.057621821E-07  0.00000E+00  9.000E+00
#rwgt            1           1   4.0299330651470212E-002           5      443554           0
</event>
<event>
      5   9999  3.79277E-02  2.74785E+01 -1.00000E+00  1.55736E-01
      21    -1     0     0   502   511  0.000000000E+00  0.000000000E+00  2.402938538E+03  2.402938538E+03  0.000000000E+00  0.00000E+00  9.000E+00
      21    -1     0     0   501   502  0.000000000E+00  0.000000000E+00 -2.215238100E+01  2.215238100E+01  0.000000000E+00  0.00000E+00  9.000E+00
      25     1     1     2     0     0  7.567835901E+01  1.361394547E+02  1.174208879E+03  1.191072062E+03  1.250000000E+02  0.00000E+00  9.000E+00
      25     1     1     2     0     0 -5.976381132E+01 -1.137386661E+02  5.853191742E+02  6.121533574E+02  1.250000000E+02  0.00000E+00  9.000E+00
      21     1     1     2   501   511 -1.591454769E+01 -2.240078856E+01  6.212581034E+02  6.218654992E+02  7.629394531E-06  0.00000E+00  9.000E+00
#rwgt            1           1  0.12054050600417925                5      443805           0
</event>
<event>
      5   9999  3.79277E-02  7.51644E+01 -1.00000E+00  1.29674E-01
      21    -1     0     0   502   501  0.000000000E+00  0.000000000E+00  1.657319512E+03  1.657319512E+03  0.000000000E+00  0.00000E+00  9.000E+00
      21    -1     0     0   512   502  0.000000000E+00  0.000000000E+00 -7.169694296E+01  7.169694296E+01  0.000000000E+00  0.00000E+00  9.000E+00
      25     1     1     2     0     0 -2.362741913E+02  1.167424824E+02  1.022590431E+03  1.063376928E+03  1.250000000E+02  0.00000E+00  9.000E+00
      25     1     1     2     0     0  2.430426346E+02 -4.188346389E+01  4.774920449E+02  5.517677045E+02  1.250000000E+02  0.00000E+00  9.000E+00
      21     1     1     2   512   501 -6.768443294E+00 -7.485901846E+01  8.554009260E+01  1.138718223E+02  2.132480600E-06  0.00000E+00  9.000E+00
#rwgt            1           1   2.7970366389014335E-002           5      444006           0
</event>
<event>
      5   9999  3.79277E-02  5.77838E+01 -1.00000E+00  1.35583E-01
      21    -1     0     0   502   501  0.000000000E+00  0.000000000E+00  7.647084403E+01  7.647084403E+01  0.000000000E+00  0.00000E+00  9.000E+00
      21    -1     0     0   501   511  0.000000000E+00  0.000000000E+00 -2.161415490E+03  2.161415490E+03  0.000000000E+00  0.00000E+00  9.000E+00
      25     1     1     2     0     0  3.151714642E+02 -4.533411853E+00 -1.213147057E+03  1.259644547E+03  1.250000000E+02  0.00000E+00  9.000E+00
      25     1     1     2     0     0 -3.503722584E+02  5.035775535E+01 -6.662790689E+02  7.647544839E+02  1.250000000E+02  0.00000E+00  9.000E+00
      21     1     1     2   502   511  3.520079427E+01 -4.582434349E+01 -2.055185205E+02  2.134873032E+02  2.697398305E-06  0.00000E+00  9.000E+00
#rwgt            1           1  0.46461592570718957                5      444104           0
</event>
<event>
      5   9999  3.79277E-02  3.37502E+01 -1.00000E+00  1.49570E-01
      21    -1     0     0   512   501  0.000000000E+00  0.000000000E+00  4.279242257E+02  4.279242257E+02  0.000000000E+00  0.00000E+00  9.000E+00
      21    -1     0     0   501   502  0.000000000E+00  0.000000000E+00 -1.205163605E+02  1.205163605E+02  0.000000000E+00  0.00000E+00  9.000E+00
      25     1     1     2     0     0 -6.085667892E+01 -2.053489632E+01  7.051305257E+01  1.572332914E+02  1.250000000E+02  0.00000E+00  9.000E+00
      25     1     1     2     0     0  7.937605684E+01 -7.680446008E+00 -3.639691280E+00  1.483165365E+02  1.250000000E+02  0.00000E+00  9.000E+00
      21     1     1     2   512   502 -1.851937792E+01  2.821534233E+01  2.405345039E+02  2.428907583E+02  0.000000000E+00  0.00000E+00  9.000E+00
#rwgt            1           1   8.6696155423669444E-002           5      444228           0
</event>
<event>
      5   9999  3.79277E-02  7.20286E+01 -1.00000E+00  1.30595E-01
      21    -1     0     0   502   501  0.000000000E+00  0.000000000E+00  5.878630284E+02  5.878630284E+02  0.000000000E+00  0.00000E+00  9.000E+00
      21    -1     0     0   511   502  0.000000000E+00  0.000000000E+00 -2.339902682E+02  2.339902682E+02  0.000000000E+00  0.00000E+00  9.000E+00
      25     1     1     2     0     0 -1.840625029E+02 -5.556253550E+01  3.683437586E+02  4.338989800E+02  1.250000000E+02  0.00000E+00  9.000E+00
      25     1     1     2     0     0  1.983657750E+02 -1.503164046E+01  9.786121461E+01  2.545127664E+02  1.250000000E+02  0.00000E+00  9.000E+00
      21     1     1     2   511   501 -1.430327211E+01  7.059417596E+01 -1.123322130E+02  1.334415503E+02  0.000000000E+00  0.00000E+00  9.000E+00
#rwgt            1           1   4.4135615310636485E-002           5      444384           0
</event>
<event>
      5   9999  3.79277E-02  8.26271E+01 -1.00000E+00  1.27674E-01
      21    -1     0     0   502   512  0.000000000E+00  0.000000000E+00  7.799586132E+02  7.799586132E+02  0.000000000E+00  0.00000E+00  9.000E+00
      21    -1     0     0   501   502  0.000000000E+00  0.000000000E+00 -5.963490149E+02  5.963490149E+02  0.000000000E+00  0.00000E+00  9.000E+00
      25     1     1     2     0     0  1.798116972E+02  9.555746306E+01 -2.482841109E+02  3.445772409E+02  1.250000000E+02  0.00000E+00  9.000E+00
      25     1     1     2     0     0 -2.047116720E+02 -1.677153147E+01 -2.488246187E+02  3.460156698E+02  1.250000000E+02  0.00000E+00  9.000E+00
      21     1     1     2   501   512  2.489997484E+01 -7.878593160E+01  6.807183279E+02  6.857147174E+02  1.078959322E-05  0.00000E+00  9.000E+00
#rwgt            1           1   4.2855743282160942E-002           5      444480           0
</event>
<event>
      5   9999  3.79277E-02  2.20834E+01 -1.00000E+00  1.62895E-01
      21    -1     0     0   511   501  0.000000000E+00  0.000000000E+00  7.411037382E+01  7.411037382E+01  0.000000000E+00  0.00000E+00  9.000E+00
      21    -1     0     0   501   502  0.000000000E+00  0.000000000E+00 -6.500195463E+02  6.500195463E+02  0.000000000E+00  0.00000E+00  9.000E+00
      25     1     1     2     0     0 -4.699116043E+01  1.326787162E+02 -4.352371000E+02  4.742026403E+02  1.250000000E+02  0.00000E+00  9.000E+00
      25     1     1     2     0     0  4.495067903E+01 -1.106898047E+02 -1.470044062E+02  2.269539421E+02  1.250000000E+02  0.00000E+00  9.000E+00
      21     1     1     2   511   502  2.040481396E+00 -2.198891150E+01  6.332333728E+00  2.297333767E+01  1.685873940E-07  0.00000E+00  9.000E+00
#rwgt            1           1  0.16134378689190434                5      444687           0
</event>
<event>
      5   9999  3.79277E-02  3.08059E+01 -1.00000E+00  1.52244E-01
      21    -1     0     0   512   501  0.000000000E+00  0.000000000E+00  1.393410189E+03  1.393410189E+03  0.000000000E+00  0.00000E+00  9.000E+00
      21    -1     0     0   501   502  0.000000000E+00  0.000000000E+00 -2.649285289E+02  2.649285289E+02  0.000000000E+00  0.00000E+00  9.000E+00
      25     1     1     2     0     0  7.808423108E+01  1.193662547E+02 -5.692929291E+01  1.980186716E+02  1.250000000E+02  0.00000E+00  9.000E+00
      25     1     1     2     0     0 -1.062476506E+02 -1.318492444E+02 -5.658338256E+01  2.179437214E+02  1.250000000E+02  0.00000E+00  9.000E+00
      21     1     1     2   512   502  2.816341957E+01  1.248298972E+01  1.241994336E+03  1.242376325E+03  2.642899792E-05  0.00000E+00  9.000E+00
#rwgt            1           1   3.8982360634178391E-002           5      444868           0
</event>
<event>
      5   9999  3.79277E-02  1.05664E+01 -1.00000E+00  1.93031E-01
      21    -1     0     0   511   501  0.000000000E+00  0.000000000E+00  3.612890969E+02  3.612890969E+02  0.000000000E+00  0.00000E+00  9.000E+00
      21    -1     0     0   501   502  0.000000000E+00  0.000000000E+00 -1.209644161E+02  1.209644161E+02  0.000000000E+00  0.00000E+00  9.000E+00
      25     1     1     2     0     0  4.018158586E+01 -9.672390381E+01  3.327582789E+01  1.664402419E+02  1.250000000E+02  0.00000E+00  9.000E+00
      25     1     1     2     0     0 -4.925956368E+01  9.131654946E+01  6.758336948E+01  1.759480851E+02  1.250000000E+02  0.00000E+00  9.000E+00
      21     1     1     2   511   502  9.077977816E+00  5.407354348E+00  1.394654835E+02  1.398651860E+02  2.697398305E-06  0.00000E+00  9.000E+00
#rwgt            1           1   3.4124298859527391E-002           5      445058           0
</event>
<event>
      5   9999  3.79277E-02  2.53549E+01 -1.00000E+00  1.58294E-01
      21    -1     0     0   502   501  0.000000000E+00  0.000000000E+00  2.430637251E+02  2.430637251E+02  0.000000000E+00  0.00000E+00  9.000E+00
      21    -1     0     0   501   512  0.000000000E+00  0.000000000E+00 -5.766044305E+02  5.766044305E+02  0.000000000E+00  0.00000E+00  9.000E+00
      25     1     1     2     0     0 -3.006026808E+02  1.126272372E+01 -2.993909462E+02  4.424350340E+02  1.250000000E+02  0.00000E+00  9.000E+00
      25     1     1     2     0     0  2.989881049E+02  1.404066928E+01  1.198345681E+01  3.245914825E+02  1.250000000E+02  0.00000E+00  9.000E+00
      21     1     1     2   502   512  1.614575883E+00 -2.530339300E+01 -4.613321592E+01  5.264163906E+01  0.000000000E+00  0.00000E+00  9.000E+00
#rwgt            1           1   3.9018152781008876E-002           5      445229           0
</event>
<event>
      5   9999  3.79277E-02  7.72650E+01 -1.00000E+00  1.29085E-01
      21    -1     0     0   502   501  0.000000000E+00  0.000000000E+00  9.377940914E+01  9.377940914E+01  0.000000000E+00  0.00000E+00  9.000E+00
       2    -1     0     0   501     0  0.000000000E+00  0.000000000E+00 -1.718150485E+03  1.718150485E+03  0.000000000E+00  0.00000E+00  9.000E+00
      25     1     1     2     0     0  2.756705514E+02 -1.713294376E+02 -1.015145057E+03  1.073076193E+03  1.250000000E+02  0.00000E+00  9.000E+00
      25     1     1     2     0     0 -2.212995726E+02  2.262263586E+02 -5.101236763E+02  6.131908604E+02  1.250000000E+02  0.00000E+00  9.000E+00
       2     1     1     2   502     0 -5.437097879E+01 -5.489692097E+01 -9.910234288E+01  1.256628411E+02  0.000000000E+00  0.00000E+00  9.000E+00
#rwgt            1           1   3.6321018633772614E-002           5      445479           0
</event>
<event>
      5   9999  3.79277E-02  8.31136E+01 -1.00000E+00  1.27552E-01
      21    -1     0     0   502   501  0.000000000E+00  0.000000000E+00  2.626650630E+02  2.626650630E+02  0.000000000E+00  0.00000E+00  9.000E+00
      21    -1     0     0   511   502  0.000000000E+00  0.000000000E+00 -5.981944551E+02  5.981944551E+02  0.000000000E+00  0.00000E+00  9.000E+00
      25     1     1     2     0     0 -1.687983174E+02  2.581973343E+01  1.675598776E+02  2.699274776E+02  1.250000000E+02  0.00000E+00  9.000E+00
      25     1     1     2     0     0  1.754307612E+02  5.702877349E+01 -4.059737721E+02  4.631068307E+02  1.250000000E+02  0.00000E+00  9.000E+00
      21     1     1     2   511   501 -6.632443786E+00 -8.284850692E+01 -9.711549752E+01  1.278252098E+02  1.348699152E-06  0.00000E+00  9.000E+00
#rwgt            1           1   4.3007615532750343E-002           5      445596           0
</event>
<event>
      5   9999  3.79277E-02  2.79730E+00 -1.00000E+00  3.06403E-01
      21    -1     0     0   502   512  0.000000000E+00  0.000000000E+00  3.953335689E+02  3.953335689E+02  0.000000000E+00  0.00000E+00  9.000E+00
      21    -1     0     0   501   502  0.000000000E+00  0.000000000E+00 -8.483801064E+01  8.483801064E+01  0.000000000E+00  0.00000E+00  9.000E+00
      25     1     1     2     0     0 -1.301086507E+00 -1.187768984E+02  1.060349720E+02  2.024303824E+02  1.250000000E+02  0.00000E+00  9.000E+00
      25     1     1     2     0     0  1.122670490E-01  1.213090167E+02  1.707641538E+02  2.439288551E+02  1.250000000E+02  0.00000E+00  9.000E+00
      21     1     1     2   501   512  1.188819458E+00 -2.532118270E+00  3.369643238E+01  3.381234197E+01  6.743495762E-07  0.00000E+00  9.000E+00
#rwgt            2          11   8.7861306192640843E-004           5      445721           0
</event>
<event>
      5   9999 -3.79277E-02  1.18564E+02 -1.00000E+00  1.20591E-01
       1    -1     0     0   502     0  0.000000000E+00  0.000000000E+00  1.906398075E+03  1.906398075E+03  0.000000000E+00  0.00000E+00  9.000E+00
      21    -1     0     0   501   502  0.000000000E+00  0.000000000E+00 -9.508529105E+01  9.508529105E+01  0.000000000E+00  0.00000E+00  9.000E+00
      25     1     1     2     0     0  4.515416494E+01 -1.942101506E+02  1.479507500E+02  2.779764480E+02  1.250000000E+02  0.00000E+00  9.000E+00
      25     1     1     2     0     0  6.672732688E+01  2.334512197E+02  6.763822529E+02  7.294312580E+02  1.250000000E+02  0.00000E+00  9.000E+00
       1     1     1     2   501     0 -1.118814918E+02 -3.924106904E+01  9.869797815E+02  9.940756605E+02  1.525878906E-05  0.00000E+00  9.000E+00
#rwgt            1           1  -8.0328663029325786E-002           5      445756           0
</event>
<event>
      5   9999  3.79277E-02  1.56307E+02 -1.00000E+00  1.15689E-01
      21    -1     0     0   502   501  0.000000000E+00  0.000000000E+00  7.132910757E+01  7.132910757E+01  0.000000000E+00  0.00000E+00  9.000E+00
       1    -1     0     0   501     0  0.000000000E+00  0.000000000E+00 -2.577252615E+03  2.577252615E+03  0.000000000E+00  0.00000E+00  9.000E+00
      25     1     1     2     0     0  5.065723785E+01  2.044789515E+02 -3.016906181E+02  3.886129519E+02  1.250000000E+02  0.00000E+00  9.000E+00
      25     1     1     2     0     0 -1.892098238E+02 -1.321253520E+02 -6.991052674E+02  7.467467047E+02  1.250000000E+02  0.00000E+00  9.000E+00
       1     1     1     2   502     0  1.385525860E+02 -7.235359950E+01 -1.505127622E+03  1.513222066E+03  0.000000000E+00  0.00000E+00  9.000E+00
#rwgt            1           1   3.8353351177292737E-002           5      445886           0
</event>
<event>
      5   9999  4.10197E-02  4.58235E+01 -1.00000E+00  1.41272E-01
       2    -1     0     0   502     0  0.000000000E+00  0.000000000E+00  3.173317769E+03  3.173317769E+03  0.000000000E+00  0.00000E+00  9.000E+00
      21    -1     0     0   501   502  0.000000000E+00  0.000000000E+00 -5.713888840E+01  5.713888840E+01  0.000000000E+00  0.00000E+00  9.000E+00
      25     1     1     2     0     0  2.101358644E+02 -7.893505698E+01  1.629700068E+03  1.649828820E+03  1.250000000E+02  0.00000E+00  9.000E+00
      25     1     1     2     0     0 -1.809422357E+02  1.142553738E+02  2.825916108E+02  3.758688623E+02  1.250000000E+02  0.00000E+00  9.000E+00
       2     1     1     2   501     0 -2.919362866E+01 -3.532031687E+01  1.203887202E+03  1.204758975E+03  3.051757812E-05  0.00000E+00  9.000E+00
#rwgt            1           1  0.44201857966856339                5      446034           0
</event>
<event>
      5   9999  3.79277E-02  1.40436E+01 -1.00000E+00  1.80122E-01
      21    -1     0     0   502   501  0.000000000E+00  0.000000000E+00  1.378918723E+03  1.378918723E+03  0.000000000E+00  0.00000E+00  9.000E+00
      21    -1     0     0   501   511  0.000000000E+00  0.000000000E+00 -6.712144228E+01  6.712144228E+01  0.000000000E+00  0.00000E+00  9.000E+00
      25     1     1     2     0     0 -2.440240488E+02 -2.157686748E+01  5.383364607E+02  6.045200101E+02  1.250000000E+02  0.00000E+00  9.000E+00
      25     1     1     2     0     0  2.458585842E+02  3.550016504E+01  7.784400053E+02  8.266199532E+02  1.250000000E+02  0.00000E+00  9.000E+00
      21     1     1     2   502   511 -1.834535347E+00 -1.392329756E+01 -4.979185297E+00  1.490020205E+01  6.556510925E-07  0.00000E+00  9.000E+00
#rwgt            1           1   3.8303572843921781E-002           5      446210           0
</event>
<event>
      5   9999  3.79277E-02  3.27263E+01 -1.00000E+00  1.50462E-01
      21    -1     0     0   502   501  0.000000000E+00  0.000000000E+00  1.288353223E+02  1.288353223E+02  0.000000000E+00  0.00000E+00  9.000E+00
      21    -1     0     0   501   512  0.000000000E+00  0.000000000E+00 -4.214401474E+02  4.214401474E+02  0.000000000E+00  0.00000E+00  9.000E+00
      25     1     1     2     0     0  8.245539905E+01  1.548371639E+02 -1.120991931E+02  2.428264179E+02  1.250000000E+02  0.00000E+00  9.000E+00
      25     1     1     2     0     0 -1.097661563E+02 -1.368056495E+02 -1.480523661E+02  2.613597098E+02  1.250000000E+02  0.00000E+00  9.000E+00
      21     1     1     2   502   512  2.731075728E+01 -1.803151444E+01 -3.245326591E+01  4.608934199E+01  6.743495762E-07  0.00000E+00  9.000E+00
#rwgt            2          11   3.3932610034025138E-003           5      446547           0
</event>
<event>
      5   9999  3.79277E-02  8.15476E+01 -1.00000E+00  1.27948E-01
      21    -1     0     0   502   501  0.000000000E+00  0.000000000E+00  8.384155705E+02  8.384155705E+02  0.000000000E+00  0.00000E+00  9.000E+00
      21    -1     0     0   511   502  0.000000000E+00  0.000000000E+00 -1.649708090E+02  1.649708090E+02  0.000000000E+00  0.00000E+00  9.000E+00
      25     1     1     2     0     0  1.198587230E+02 -3.109291692E+01 -7.153243784E+01  1.899336006E+02  1.250000000E+02  0.00000E+00  9.000E+00
      25     1     1     2     0     0 -1.118411326E+02  1.122453827E+02  6.795973333E+02  7.089322960E+02  1.250000000E+02  0.00000E+00  9.000E+00
      21     1     1     2   511   501 -8.017590388E+00 -8.115246581E+01  6.537986613E+01  1.045204830E+02  1.907348633E-06  0.00000E+00  9.000E+00
#rwgt            1           1   4.5463015415857830E-002           5      446657           0
</event>
<event>
      5   9999  3.79277E-02  2.98686E+01 -1.00000E+00  1.53172E-01
      21    -1     0     0   512   501  0.000000000E+00  0.000000000E+00  1.525464289E+02  1.525464289E+02  0.000000000E+00  0.00000E+00  9.000E+00
      21    -1     0     0   501   502  0.000000000E+00  0.000000000E+00 -6.532817564E+02  6.532817564E+02  0.000000000E+00  0.00000E+00  9.000E+00
      25     1     1     2     0     0  5.235897149E+01 -2.824395393E+02 -2.469972292E+02  3.989313055E+02  1.250000000E+02  0.00000E+00  9.000E+00
      25     1     1     2     0     0 -5.705466218E+01  2.529423491E+02 -2.353724416E+02  3.718336358E+02  1.250000000E+02  0.00000E+00  9.000E+00
      21     1     1     2   512   502  4.695690688E+00  2.949719016E+01 -1.836565667E+01  3.506324405E+01  3.371747881E-07  0.00000E+00  9.000E+00
#rwgt            1           1   4.2264381961416415E-002           5      446882           0
</event>
<event>
      5   9999  3.79277E-02  4.49716E+01 -1.00000E+00  1.41754E-01
      21    -1     0     0   502   501  0.000000000E+00  0.000000000E+00  1.818449147E+02  1.818449147E+02  0.000000000E+00  0.00000E+00  9.000E+00
       2    -1     0     0   501     0  0.000000000E+00  0.000000000E+00 -2.854999552E+02  2.854999552E+02  0.000000000E+00  0.00000E+00  9.000E+00
      25     1     1     2     0     0  1.167214524E+02  3.825542156E+01 -3.637889228E+01  1.789854702E+02  1.250000000E+02  0.00000E+00  9.000E+00
      25     1     1     2     0     0 -1.559832993E+02 -6.018612970E+01 -1.597954657E+00  2.087599418E+02  1.250000000E+02  0.00000E+00  9.000E+00
       2     1     1     2   502     0  3.926184685E+01  2.193070814E+01 -6.567819357E+01  7.959945784E+01  1.651812370E-06  0.00000E+00  9.000E+00
#rwgt            1           1   4.2458850497412437E-002           5      447021           0
</event>
<event>
      5   9999  3.79277E-02  8.02437E+01 -1.00000E+00  1.28286E-01
      21    -1     0     0   502   511  0.000000000E+00  0.000000000E+00  6.088012847E+02  6.088012847E+02  0.000000000E+00  0.00000E+00  9.000E+00
      21    -1     0     0   501   502  0.000000000E+00  0.000000000E+00 -1.200449039E+02  1.200449039E+02  0.000000000E+00  0.00000E+00  9.000E+00
      25     1     1     2     0     0  1.230701940E+02 -3.597977452E+01  2.460423178E+02  3.043068171E+02  1.250000000E+02  0.00000E+00  9.000E+00
      25     1     1     2     0     0 -1.661167670E+02  1.037001302E+02  8.463193999E+01  2.472570779E+02  1.250000000E+02  0.00000E+00  9.000E+00
      21     1     1     2   501   511  4.304657307E+01 -6.772035569E+01  1.580821229E+02  1.772822936E+02  1.907348633E-06  0.00000E+00  9.000E+00
#rwgt            1           1   3.5577557446899381E-002           5      447142           0
</event>
<event>
      5   9999  3.79277E-02  1.65485E+01 -1.00000E+00  1.73456E-01
      21    -1     0     0   512   501  0.000000000E+00  0.000000000E+00  2.522570030E+02  2.522570030E+02  0.000000000E+00  0.00000E+00  9.000E+00
      21    -1     0     0   501   502  0.000000000E+00  0.000000000E+00 -2.536102704E+02  2.536102704E+02  0.000000000E+00  0.00000E+00  9.000E+00
      25     1     1     2     0     0  1.952364189E+02 -3.343694909E+01  1.269670562E+01  2.345666114E+02  1.250000000E+02  0.00000E+00  9.000E+00
      25     1     1     2     0     0 -1.831465310E+02  2.213707568E+01 -5.293473745E+01  2.290410189E+02  1.250000000E+02  0.00000E+00  9.000E+00
      21     1     1     2   512   502 -1.208988795E+01  1.129987341E+01  3.888476438E+01  4.225964305E+01  6.743495762E-07  0.00000E+00  9.000E+00
#rwgt            1           1   3.3396985275547103E-002           5      447248           0
</event>
<event>
      5   9999  3.79277E-02  8.73256E+01 -1.00000E+00  1.26534E-01
      21    -1     0     0   502   511  0.000000000E+00  0.000000000E+00  3.916030473E+02  3.916030473E+02  0.000000000E+00  0.00000E+00  9.000E+00
      21    -1     0     0   501   502  0.000000000E+00  0.000000000E+00 -2.314130931E+02  2.314130931E+02  0.000000000E+00  0.00000E+00  9.000E+00
      25     1     1     2     0     0  5.058000122E+01  1.115082326E+02  1.175816989E+02  2.108147964E+02  1.250000000E+02  0.00000E+00  9.000E+00
      25     1     1     2     0     0 -1.365594765E+02 -9.623463014E+01 -1.103780444E+02  2.360464093E+02  1.250000000E+02  0.00000E+00  9.000E+00
      21     1     1     2   501   511  8.597947533E+01 -1.527360248E+01  1.529862997E+02  1.761549347E+02  0.000000000E+00  0.00000E+00  9.000E+00
#rwgt            1           1   3.8807811809373920E-002           5      447478           0
</event>
<event>
      5   9999  3.79277E-02  2.52992E+01 -1.00000E+00  1.58365E-01
      21    -1     0     0   502   501  0.000000000E+00  0.000000000E+00  7.981988030E+02  7.981988030E+02  0.000000000E+00  0.00000E+00  9.000E+00
      21    -1     0     0   501   512  0.000000000E+00  0.000000000E+00 -8.246039973E+01  8.246039973E+01  0.000000000E+00  0.00000E+00  9.000E+00
      25     1     1     2     0     0 -1.507170952E+02  8.953436590E+01  3.060506995E+02  3.741979103E+02  1.250000000E+02  0.00000E+00  9.000E+00
      25     1     1     2     0     0  1.754785835E+02 -8.434628719E+01  4.197027488E+02  4.792519449E+02  1.250000000E+02  0.00000E+00  9.000E+00
      21     1     1     2   502   512 -2.476148828E+01 -5.188078711E+00 -1.001504496E+01  2.720934744E+01  5.462855929E-07  0.00000E+00  9.000E+00
#rwgt            1           1   4.3612780232232341E-002           5      447595           0
</event>
<event>
      5   9999  3.79277E-02  9.66721E+01 -1.00000E+00  1.24493E-01
      21    -1     0     0   511   501  0.000000000E+00  0.000000000E+00  6.631051836E+02  6.631051836E+02  0.000000000E+00  0.00000E+00  9.000E+00
      21    -1     0     0   501   502  0.000000000E+00  0.000000000E+00 -2.970313243E+02  2.970313243E+02  0.000000000E+00  0.00000E+00  9.000E+00
      25     1     1     2     0     0  1.387585540E+02 -2.002759020E+02  1.438657326E+01  2.742195229E+02  1.250000000E+02  0.00000E+00  9.000E+00
      25     1     1     2     0     0 -1.696895758E+02  1.086856758E+02 -7.476855256E+01  2.486412370E+02  1.250000000E+02  0.00000E+00  9.000E+00
      21     1     1     2   511   502  3.093102183E+01  9.159022618E+01  4.264558386E+02  4.372757481E+02  0.000000000E+00  0.00000E+00  9.000E+00
#rwgt            1           1   4.4713451273640251E-002           5      447743           0
</event>
<event>
      5   9999  3.79277E-02  1.02428E+02 -1.00000E+00  1.23361E-01
      21    -1     0     0   502   501  0.000000000E+00  0.000000000E+00  2.356023576E+02  2.356023576E+02  0.000000000E+00  0.00000E+00  9.000E+00
      21    -1     0     0   512   502  0.000000000E+00  0.000000000E+00 -2.250495442E+02  2.250495442E+02  0.000000000E+00  0.00000E+00  9.000E+00
      25     1     1     2     0     0 -1.136055974E+02 -9.994245500E+01 -1.846291616E+01  1.971309345E+02  1.250000000E+02  0.00000E+00  9.000E+00
      25     1     1     2     0     0  2.496041680E+01  4.862358896E+01  6.983093668E+01  1.532600259E+02  1.250000000E+02  0.00000E+00  9.000E+00
      21     1     1     2   512   501  8.864518065E+01  5.131886604E+01 -4.081520705E+01  1.102609414E+02  6.743495762E-07  0.00000E+00  9.000E+00
#rwgt            1           1   3.6186505756643783E-002           5      447887           0
</event>
<event>
      5   9999 -6.47815E-02  2.58561E+01 -1.00000E+00  1.57663E-01
      21    -1     0     0   502   511  0.000000000E+00  0.000000000E+00  1.205576720E+02  1.205576720E+02  0.000000000E+00  0.00000E+00  9.000E+00
      21    -1     0     0   501   502  0.000000000E+00  0.000000000E+00 -8.643215373E+02  8.643215373E+02  0.000000000E+00  0.00000E+00  9.000E+00
      25     1     1     2     0     0  1.825683880E+02  5.323327573E+01 -4.298662150E+02  4.863897211E+02  1.250000000E+02  0.00000E+00  9.000E+00
      25     1     1     2     0     0 -1.848443511E+02 -2.747757136E+01 -3.721306926E+02  4.347743132E+02  1.250000000E+02  0.00000E+00  9.000E+00
      21     1     1     2   501   511  2.275963091E+00 -2.575570437E+01  5.823304230E+01  6.371517505E+01  6.743495762E-07  0.00000E+00  9.000E+00
#rwgt            1           1 -0.63987871966725274                5      447969           0
</event>
<event>
      5   9999  3.79277E-02  2.54580E+01 -1.00000E+00  1.58163E-01
      21    -1     0     0   502   501  0.000000000E+00  0.000000000E+00  3.466219843E+02  3.466219843E+02  0.000000000E+00  0.00000E+00  9.000E+00
      21    -1     0     0   512   502  0.000000000E+00  0.000000000E+00 -9.629278931E+01  9.629278931E+01  0.000000000E+00  0.00000E+00  9.000E+00
      25     1     1     2     0     0  1.723387783E+00 -4.726192730E+01  2.384425671E+02  2.733432231E+02  1.250000000E+02  0.00000E+00  9.000E+00
      25     1     1     2     0     0 -2.459957088E+01  5.843283905E+01 -2.788530871E+00  1.401867022E+02  1.250000000E+02  0.00000E+00  9.000E+00
      21     1     1     2   512   501  2.287618310E+01 -1.117091175E+01  1.467515876E+01  2.938484826E+01  4.460403188E-07  0.00000E+00  9.000E+00
#rwgt            1           1   3.5980762664475620E-002           5      448354           0
</event>
<event>
      5   9999  3.79277E-02  6.14699E+01 -1.00000E+00  1.34144E-01
      21    -1     0     0   511   501  0.000000000E+00  0.000000000E+00  1.884740374E+02  1.884740374E+02  0.000000000E+00  0.00000E+00  9.000E+00
      21    -1     0     0   501   502  0.000000000E+00  0.000000000E+00 -3.822392640E+02  3.822392640E+02  0.000000000E+00  0.00000E+00  9.000E+00
      25     1     1     2     0     0  4.777228589E+01  1.472213338E+02  1.393402052E+01  1.994378834E+02  1.250000000E+02  0.00000E+00  9.000E+00
      25     1     1     2     0     0  9.892736338E+00 -1.685121546E+02 -2.246112664E+02  3.075214358E+02  1.250000000E+02  0.00000E+00  9.000E+00
      21     1     1     2   511   502 -5.766502223E+01  2.129082088E+01  1.691201926E+01  6.375398214E+01  1.118282261E-06  0.00000E+00  9.000E+00
#rwgt            1           1   3.4608926884485525E-002           5      448572           0
</event>
<event>
      5   9999  3.79277E-02  5.97656E+01 -1.00000E+00  1.34794E-01
      21    -1     0     0   502   512  0.000000000E+00  0.000000000E+00  4.903250959E+02  4.903250959E+02  0.000000000E+00  0.00000E+00  9.000E+00
      21    -1     0     0   501   502  0.000000000E+00  0.000000000E+00 -3.613524564E+02  3.613524564E+02  0.000000000E+00  0.00000E+00  9.000E+00
      25     1     1     2     0     0  1.504790085E+02 -1.337040177E+02  6.755028793E+00  2.370470982E+02  1.250000000E+02  0.00000E+00  9.000E+00
      25     1     1     2     0     0 -1.009670607E+02  1.002302206E+02 -2.066927015E+02  2.803342957E+02  1.250000000E+02  0.00000E+00  9.000E+00
      21     1     1     2   501   512 -4.951194779E+01  3.347379709E+01  3.289103122E+02  3.342961584E+02  0.000000000E+00  0.00000E+00  9.000E+00
#rwgt            1           1   4.1191768165961658E-002           5      448676           0
</event>
<event>
      5   9999  3.79277E-02  2.64615E+01 -1.00000E+00  1.56925E-01
      21    -1     0     0   502   501  0.000000000E+00  0.000000000E+00  3.526351488E+02  3.526351488E+02  0.000000000E+00  0.00000E+00  9.000E+00
      21    -1     0     0   501   511  0.000000000E+00  0.000000000E+00 -1.819098385E+02  1.819098385E+02  0.000000000E+00  0.00000E+00  9.000E+00
      25     1     1     2     0     0  1.325101424E+02  8.926888678E+01  1.704930420E+02  2.649919798E+02  1.250000000E+02  0.00000E+00  9.000E+00
      25     1     1     2     0     0 -1.588013377E+02 -9.226628930E+01  3.600116201E+01  2.250600290E+02  1.250000000E+02  0.00000E+00  9.000E+00
      21     1     1     2   502   511  2.629119530E+01  2.997402515E+00 -3.576889378E+01  4.449297849E+01  9.536743164E-07  0.00000E+00  9.000E+00
#rwgt            1           1   3.6226736221508467E-002           5      448975           0
</event>
<event>
      5   9999  3.79277E-02  8.34674E+01 -1.00000E+00  1.27464E-01
      21    -1     0     0   502   501  0.000000000E+00  0.000000000E+00  1.208988534E+02  1.208988534E+02  0.000000000E+00  0.00000E+00  9.000E+00
       1    -1     0     0   501     0  0.000000000E+00  0.000000000E+00 -8.716515271E+02  8.716515271E+02  0.000000000E+00  0.00000E+00  9.000E+00
      25     1     1     2     0     0 -9.486404039E+01 -1.216738374E+02 -3.114600492E+02  3.693725370E+02  1.250000000E+02  0.00000E+00  9.000E+00
      25     1     1     2     0     0  1.662927891E+02  1.648564233E+02 -1.166904429E+02  2.899527401E+02  1.250000000E+02  0.00000E+00  9.000E+00
       1     1     1     2   502     0 -7.142874873E+01 -4.318258594E+01 -3.226021817E+02  3.332251033E+02  0.000000000E+00  0.00000E+00  9.000E+00
#rwgt            2          12   8.3261078568638277E-005           5      449435           0
</event>
<event>
      5   9999  3.79277E-02  3.75246E+01 -1.00000E+00  1.46582E-01
      21    -1     0     0   511   501  0.000000000E+00  0.000000000E+00  1.810819558E+02  1.810819558E+02  0.000000000E+00  0.00000E+00  9.000E+00
      21    -1     0     0   501   502  0.000000000E+00  0.000000000E+00 -2.621679269E+02  2.621679269E+02  0.000000000E+00  0.00000E+00  9.000E+00
      25     1     1     2     0     0  1.514848718E+02 -6.779562627E+01 -8.021379288E+01  2.227176820E+02  1.250000000E+02  0.00000E+00  9.000E+00
      25     1     1     2     0     0 -1.139958433E+02  6.942878503E+01  2.217500355E+00  1.828806326E+02  1.250000000E+02  0.00000E+00  9.000E+00
      21     1     1     2   511   502 -3.748902841E+01 -1.633158755E+00 -3.089678617E+00  3.765156800E+01  9.775888602E-07  0.00000E+00  9.000E+00
#rwgt            1           1   3.4484362778169464E-002           5      449469           0
</event>
<event>
      5   9999  3.79277E-02  3.43978E+01 -1.00000E+00  1.49025E-01
      21    -1     0     0   512   501  0.000000000E+00  0.000000000E+00  5.225657641E+02  5.225657641E+02  0.000000000E+00  0.00000E+00  9.000E+00
      21    -1     0     0   501   502  0.000000000E+00  0.000000000E+00 -8.956969236E+01  8.956969236E+01  0.000000000E+00  0.00000E+00  9.000E+00
      25     1     1     2     0     0 -8.586418893E+01  1.090079926E+02  1.297321057E+02  2.274001334E+02  1.250000000E+02  0.00000E+00  9.000E+00
      25     1     1     2     0     0  9.782787073E+01 -7.675769198E+01  1.623234437E+02  2.396579561E+02  1.250000000E+02  0.00000E+00  9.000E+00
      21     1     1     2   512   502 -1.196368180E+01 -3.225030063E+01  1.409405223E+02  1.450773670E+02  3.303624740E-06  0.00000E+00  9.000E+00
#rwgt            1           1   3.2301160203823974E-002           5      449682           0
</event>
<event>
      5   9999  3.79277E-02  7.72507E+01 -1.00000E+00  1.29089E-01
      21    -1     0     0   502   511  0.000000000E+00  0.000000000E+00  1.660304660E+02  1.660304660E+02  0.000000000E+00  0.00000E+00  9.000E+00
      21    -1     0     0   501   502  0.000000000E+00  0.000000000E+00 -4.075491025E+02  4.075491025E+02  0.000000000E+00  0.00000E+00  9.000E+00
      25     1     1     2     0     0  1.722044032E+02 -9.477017959E+01 -1.803366843E+02  2.945879548E+02  1.250000000E+02  0.00000E+00  9.000E+00
      25     1     1     2     0     0 -9.861580941E+01  7.126728787E+01 -9.031150909E+01  1.964313439E+02  1.250000000E+02  0.00000E+00  9.000E+00
      21     1     1     2   501   511 -7.358859377E+01  2.350289172E+01  2.912955690E+01  8.256026973E+01  7.539457465E-07  0.00000E+00  9.000E+00
#rwgt            1           1   4.0403001194531357E-002           5      449883           0
</event>
<event>
      5   9999  3.79277E-02  2.54799E+01 -1.00000E+00  1.58135E-01
      21    -1     0     0   502   501  0.000000000E+00  0.000000000E+00  9.848751131E+01  9.848751131E+01  0.000000000E+00  0.00000E+00  9.000E+00
      21    -1     0     0   512   502  0.000000000E+00  0.000000000E+00 -7.118598994E+02  7.118598994E+02  0.000000000E+00  0.00000E+00  9.000E+00
      25     1     1     2     0     0 -8.708832113E+01 -5.644587568E+01 -1.339927229E+02  2.105933578E+02  1.250000000E+02  0.00000E+00  9.000E+00
      25     1     1     2     0     0  8.676675665E+01  8.192375643E+01 -6.506648379E+01  1.846581145E+02  1.250000000E+02  0.00000E+00  9.000E+00
      21     1     1     2   512   501  3.215644808E-01 -2.547788075E+01 -4.143131815E+02  4.150959385E+02  5.394796609E-06  0.00000E+00  9.000E+00
#rwgt            1           1   7.4850845227645239E-003           5      449996           0
</event>
<event>
      5   9999  3.79277E-02  4.27340E+01 -1.00000E+00  1.43082E-01
      21    -1     0     0   502   501  0.000000000E+00  0.000000000E+00  1.803610296E+02  1.803610296E+02  0.000000000E+00  0.00000E+00  9.000E+00
      21    -1     0     0   511   502  0.000000000E+00  0.000000000E+00 -3.945326856E+02  3.945326856E+02  0.000000000E+00  0.00000E+00  9.000E+00
      25     1     1     2     0     0  9.821584950E-01  7.397024273E+00  1.344862259E+02  1.837586067E+02  1.250000000E+02  0.00000E+00  9.000E+00
      25     1     1     2     0     0 -3.730300663E+01 -2.991354696E+01 -2.784769546E+02  3.089672294E+02  1.250000000E+02  0.00000E+00  9.000E+00
      21     1     1     2   511   501  3.632084814E+01  2.251652269E+01 -7.018092730E+01  8.216787913E+01  1.348699152E-06  0.00000E+00  9.000E+00
#rwgt            1           1   4.4392143546807511E-002           5      450154           0
</event>
<event>
      5   9999  3.79277E-02  3.09657E+01 -1.00000E+00  1.52090E-01
      21    -1     0     0   502   512  0.000000000E+00  0.000000000E+00  4.496507886E+02  4.496507886E+02  0.000000000E+00  0.00000E+00  9.000E+00
      21    -1     0     0   501   502  0.000000000E+00  0.000000000E+00 -1.595428451E+02  1.595428451E+02  0.000000000E+00  0.00000E+00  9.000E+00
      25     1     1     2     0     0 -9.429953072E+01  9.153338095E+01 -3.859325903E+01  1.854324701E+02  1.250000000E+02  0.00000E+00  9.000E+00
      25     1     1     2     0     0  7.026089742E+01 -1.110530141E+02  1.312013416E+02  2.238485151E+02  1.250000000E+02  0.00000E+00  9.000E+00
      21     1     1     2   501   512  2.403863331E+01  1.951963320E+01  1.974998609E+02  1.999126485E+02  2.697398305E-06  0.00000E+00  9.000E+00
#rwgt            1           1   2.6960639151318629E-002           5      450318           0
</event>
<event>
      5   9999  3.79277E-02  1.16577E+02 -1.00000E+00  1.20904E-01
      21    -1     0     0   502   501  0.000000000E+00  0.000000000E+00  2.874459335E+02  2.874459335E+02  0.000000000E+00  0.00000E+00  9.000E+00
      21    -1     0     0   511   502  0.000000000E+00  0.000000000E+00 -1.856300480E+02  1.856300480E+02  0.000000000E+00  0.00000E+00  9.000E+00
      25     1     1     2     0     0  1.245525635E+01 -3.701286366E+01  9.070993014E+01  1.593059224E+02  1.250000000E+02  0.00000E+00  9.000E+00
      25     1     1     2     0     0 -1.262466033E+02  6.234490432E+01  4.254347616E+01  1.930285971E+02  1.250000000E+02  0.00000E+00  9.000E+00
      21     1     1     2   511   501  1.137913469E+02 -2.533204066E+01 -3.143752081E+01  1.207414620E+02  1.846782373E-06  0.00000E+00  9.000E+00
#rwgt            1           1   3.7585967614440989E-002           5      450494           0
</event>
<event>
      5   9999  3.79277E-02  1.34698E+02 -1.00000E+00  1.18276E-01
       1    -1     0     0   502     0  0.000000000E+00  0.000000000E+00  8.554648914E+02  8.554648914E+02  0.000000000E+00  0.00000E+00  9.000E+00
      21    -1     0     0   501   502  0.000000000E+00  0.000000000E+00 -9.493966030E+01  9.493966030E+01  0.000000000E+00  0.00000E+00  9.000E+00
      25     1     1     2     0     0 -4.925288058E+01  6.457960616E+01  3.526382711E+01  1.531826011E+02  1.250000000E+02  0.00000E+00  9.000E+00
      25     1     1     2     0     0 -8.372325459E+01 -4.310927720E+01  1.945582681E+02  2.496916355E+02  1.250000000E+02  0.00000E+00  9.000E+00
       1     1     1     2   501     0  1.329761352E+02 -2.147032896E+01  5.307031358E+02  5.475303151E+02  1.078959322E-05  0.00000E+00  9.000E+00
#rwgt            1           1  0.10571328104813346                5      450558           0
</event>
<event>
      5   9999  3.79277E-02  4.33056E+01 -1.00000E+00  1.42733E-01
      21    -1     0     0   502   501  0.000000000E+00  0.000000000E+00  2.533611617E+02  2.533611617E+02  0.000000000E+00  0.00000E+00  9.000E+00
      21    -1     0     0   501   511  0.000000000E+00  0.000000000E+00 -1.345348647E+02  1.345348647E+02  0.000000000E+00  0.00000E+00  9.000E+00
      25     1     1     2     0     0 -5.214054906E+01 -9.070895828E+01  3.635252455E+01  1.670127480E+02  1.250000000E+02  0.00000E+00  9.000E+00
      25     1     1     2     0     0  8.962232585E+00  9.402702124E+01  8.356177371E+01  1.775639951E+02  1.250000000E+02  0.00000E+00  9.000E+00
      21     1     1     2   502   511  4.317831648E+01 -3.318062961E+00 -1.088001182E+00  4.331928326E+01  1.534168443E-07  0.00000E+00  9.000E+00
#rwgt            1           1   6.1214256493548162E-002           5      450593           0
</event>
<event>
      5   9999  3.79277E-02  8.97875E+01 -1.00000E+00  1.25969E-01
      21    -1     0     0   502   501  0.000000000E+00  0.000000000E+00  3.086149211E+02  3.086149211E+02  0.000000000E+00  0.00000E+00  9.000E+00
      21    -1     0     0   512   502  0.000000000E+00  0.000000000E+00 -3.658587251E+02  3.658587251E+02  0.000000000E+00  0.00000E+00  9.000E+00
      25     1     1     2     0     0 -1.523815707E+02  1.321415815E+02  5.184813382E+01  2.428883892E+02  1.250000000E+02  0.00000E+00  9.000E+00
      25     1     1     2     0     0  1.999013192E+02 -5.595977712E+01  5.137881005E+01  2.477030807E+02  1.250000000E+02  0.00000E+00  9.000E+00
      21     1     1     2   512   501 -4.751974850E+01 -7.618180437E+01 -1.604707479E+02  1.838821763E+02  3.303624740E-06  0.00000E+00  9.000E+00
#rwgt            1           1   3.6922211464629762E-002           5      450742           0
</event>
<event>
      5   9999  3.79277E-02  6.24478E+01 -1.00000E+00  1.33782E-01
       2    -1     0     0   502     0  0.000000000E+00  0.000000000E+00  2.284535007E+03  2.284535007E+03  0.000000000E+00  0.00000E+00  9.000E+00
      21    -1     0     0   501   502  0.000000000E+00  0.000000000E+00 -5.447519580E+02  5.447519580E+02  0.000000000E+00  0.00000E+00  9.000E+00
      25     1     1     2     0     0 -1.851667239E+02 -3.224081839E+02 -1.668375126E+02  4.262552150E+02  1.250000000E+02  0.00000E+00  9.000E+00
      25     1     1     2     0     0  1.461638168E+02  2.736383547E+02 -1.348354230E+02  3.606208561E+02  1.250000000E+02  0.00000E+00  9.000E+00
       2     1     1     2   501     0  3.900290703E+01  4.876982920E+01  2.041455984E+03  2.042410894E+03  0.000000000E+00  0.00000E+00  9.000E+00
#rwgt            1           1   3.1687621207380008E-002           5      450829           0
</event>
<event>
      5   9999  3.79277E-02  2.70976E+01 -1.00000E+00  1.56174E-01
      21    -1     0     0   511   501  0.000000000E+00  0.000000000E+00  9.445913529E+02  9.445913529E+02  0.000000000E+00  0.00000E+00  9.000E+00
      21    -1     0     0   501   502  0.000000000E+00  0.000000000E+00 -6.869605950E+01  6.869605950E+01  0.000000000E+00  0.00000E+00  9.000E+00
      25     1     1     2     0     0  1.868496037E+02 -9.158404662E+01  4.627490453E+02  5.225534335E+02  1.250000000E+02  0.00000E+00  9.000E+00
      25     1     1     2     0     0 -1.832393569E+02  6.472804137E+01  3.268097327E+02  4.002449033E+02  1.250000000E+02  0.00000E+00  9.000E+00
      21     1     1     2   511   502 -3.610246773E+00  2.685600525E+01  8.633651545E+01  9.048907559E+01  1.348699152E-06  0.00000E+00  9.000E+00
#rwgt            1           1  0.34572197803594840                5      450941           0
</event>
<event>
      5   9999  3.79277E-02  2.20511E+01 -1.00000E+00  1.62945E-01
      21    -1     0     0   502   501  0.000000000E+00  0.000000000E+00  1.888840525E+03  1.888840525E+03  0.000000000E+00  0.00000E+00  9.000E+00
      21    -1     0     0   501   512  0.000000000E+00  0.000000000E+00 -2.361041322E+01  2.361041322E+01  0.000000000E+00  0.00000E+00  9.000E+00
      25     1     1     2     0     0  5.979082820E+00 -1.338978779E+02  1.326884478E+03  1.339481918E+03  1.250000000E+02  0.00000E+00  9.000E+00
      25     1     1     2     0     0  4.934353181E+00  1.147368100E+02  5.068663055E+02  5.345346903E+02  1.250000000E+02  0.00000E+00  9.000E+00
      21     1     1     2   502   512 -1.091343600E+01  1.916106785E+01  3.147932875E+01  3.843433030E+01  8.259061849E-07  0.00000E+00  9.000E+00
#rwgt            1           1  0.10906022051165849                5      451086           0
</event>
<event>
      5   9999  3.79277E-02  4.49231E+01 -1.00000E+00  1.41782E-01
      21    -1     0     0   502   501  0.000000000E+00  0.000000000E+00  2.660583858E+03  2.660583858E+03  0.000000000E+00  0.00000E+00  9.000E+00
       2    -1     0     0   501     0  0.000000000E+00  0.000000000E+00 -2.837493443E+02  2.837493443E+02  0.000000000E+00  0.00000E+00  9.000E+00
      25     1     1     2     0     0  2.003873935E+02 -1.361331155E+01  1.387127217E+03  1.407155765E+03  1.250000000E+02  0.00000E+00  9.000E+00
      25     1     1     2     0     0 -2.139660701E+02 -2.920847134E+01  1.249173980E+03  1.273850559E+03  1.250000000E+02  0.00000E+00  9.000E+00
       2     1     1     2   502     0  1.357867664E+01  4.282178289E+01 -2.594666832E+02  2.633268790E+02  6.607249480E-06  0.00000E+00  9.000E+00
#rwgt            1           1   5.0287309469195560E-002           5      451209           0
</event>
<event>
      5   9999  3.79277E-02  9.66575E+01 -1.00000E+00  1.24496E-01
      21    -1     0     0   502   501  0.000000000E+00  0.000000000E+00  4.282282956E+01  4.282282956E+01  0.000000000E+00  0.00000E+00  9.000E+00
       2    -1     0     0   501     0  0.000000000E+00  0.000000000E+00 -1.643004941E+03  1.643004941E+03  0.000000000E+00  0.00000E+00  9.000E+00
      25     1     1     2     0     0 -9.036027196E+00 -1.283756592E+02 -4.219750301E+02  4.585301360E+02  1.250000000E+02  0.00000E+00  9.000E+00
      25     1     1     2     0     0  9.015478206E+01  7.581688479E+01 -3.157646404E+02  3.594556898E+02  1.250000000E+02  0.00000E+00  9.000E+00
       2     1     1     2   502     0 -8.111875486E+01  5.255877443E+01 -8.624424409E+02  8.678419447E+02  0.000000000E+00  0.00000E+00  9.000E+00
#rwgt            1           1   4.1351031943671561E-002           5      451388           0
</event>
<event>
      5   9999  3.79277E-02  1.85771E+01 -1.00000E+00  1.69058E-01
      21    -1     0     0   511   501  0.000000000E+00  0.000000000E+00  1.723614840E+02  1.723614840E+02  0.000000000E+00  0.00000E+00  9.000E+00
      21    -1     0     0   501   502  0.000000000E+00  0.000000000E+00 -5.282536619E+02  5.282536619E+02  0.000000000E+00  0.00000E+00  9.000E+00
      25     1     1     2     0     0 -1.370916835E+02  1.289599764E+02 -3.048305069E+02  3.794356904E+02  1.250000000E+02  0.00000E+00  9.000E+00
      25     1     1     2     0     0  1.532705945E+02 -1.198302108E+02 -1.123793341E+02  2.571094500E+02  1.250000000E+02  0.00000E+00  9.000E+00
      21     1     1     2   511   502 -1.617891103E+01 -9.129765590E+00  6.131766321E+01  6.407000549E+01  1.348699152E-06  0.00000E+00  9.000E+00
#rwgt            1           1   3.1759489813249477E-002           5      451449           0
</event>
<event>
      5   9999  3.79277E-02  6.48589E+01 -1.00000E+00  1.32921E-01
      21    -1     0     0   502   512  0.000000000E+00  0.000000000E+00  3.103748706E+02  3.103748706E+02  0.000000000E+00  0.00000E+00  9.000E+00
      21    -1     0     0   501   502  0.000000000E+00  0.000000000E+00 -1.355599754E+02  1.355599754E+02  0.000000000E+00  0.00000E+00  9.000E+00
      25     1     1     2     0     0  8.724712537E+01 -5.441087536E+01  1.686399377E+02  2.337456585E+02  1.250000000E+02  0.00000E+00  9.000E+00
      25     1     1     2     0     0 -2.238972519E+01  5.396511714E+01 -2.500042449E+01  1.402267980E+02  1.250000000E+02  0.00000E+00  9.000E+00
      21     1     1     2   501   512 -6.485740018E+01  4.457582240E-01  3.117538197E+01  7.196238948E+01  1.719260824E-06  0.00000E+00  9.000E+00
#rwgt            1           1   4.2811828317642721E-002           5      451638           0
</event>
<event>
      5   9999  3.79277E-02  1.10924E+02 -1.00000E+00  1.21836E-01
      21    -1     0     0   511   501  0.000000000E+00  0.000000000E+00  2.186346283E+02  2.186346283E+02  0.000000000E+00  0.00000E+00  9.000E+00
      21    -1     0     0   501   502  0.000000000E+00  0.000000000E+00 -6.705929019E+02  6.705929019E+02  0.000000000E+00  0.00000E+00  9.000E+00
      25     1     1     2     0     0 -1.203455814E+02 -1.800656132E+01 -4.988083058E+02  5.284335542E+02  1.250000000E+02  0.00000E+00  9.000E+00
      25     1     1     2     0     0  2.052234318E+02 -5.340625124E+01  4.238440488E+01  2.497805485E+02  1.250000000E+02  0.00000E+00  9.000E+00
      21     1     1     2   511   502 -8.487785031E+01  7.141281257E+01  4.465627388E+00  1.110134276E+02  2.198110689E-06  0.00000E+00  9.000E+00
#rwgt            1           1  0.20961868795894431                5      451736           0
</event>
<event>
      5   9999  3.79277E-02  7.58014E+01 -1.00000E+00  1.29493E-01
      21    -1     0     0   502   501  0.000000000E+00  0.000000000E+00  3.517872823E+01  3.517872823E+01  0.000000000E+00  0.00000E+00  9.000E+00
       2    -1     0     0   501     0  0.000000000E+00  0.000000000E+00 -4.934613713E+03  4.934613713E+03  0.000000000E+00  0.00000E+00  9.000E+00
      25     1     1     2     0     0 -1.626844753E+02  8.590019703E+00 -6.678649807E+02  6.987192994E+02  1.250000000E+02  0.00000E+00  9.000E+00
      25     1     1     2     0     0  2.243685904E+02  3.546579635E+01 -8.502440269E+02  8.888976276E+02  1.250000000E+02  0.00000E+00  9.000E+00
       2     1     1     2   502     0 -6.168411512E+01 -4.405581605E+01 -3.381325977E+03  3.382175514E+03  4.315837288E-05  0.00000E+00  9.000E+00
#rwgt            2          13   1.1882996777595076E-004           5      451800           0
</event>
<event>
      5   9999  3.79277E-02  1.32781E+02 -1.00000E+00  1.18532E-01
      21    -1     0     0   502   511  0.000000000E+00  0.000000000E+00  9.859001556E+02  9.859001556E+02  0.000000000E+00  0.00000E+00  9.000E+00
      21    -1     0     0   501   502  0.000000000E+00  0.000000000E+00 -5.492815671E+01  5.492815671E+01  0.000000000E+00  0.00000E+00  9.000E+00
      25     1     1     2     0     0  8.260254098E+01 -5.635588218E+01  4.644780469E+02  4.912881245E+02  1.250000000E+02  0.00000E+00  9.000E+00
      25     1     1     2     0     0 -2.064668411E+01 -6.108470373E+01  1.464862353E+02  2.030784177E+02  1.250000000E+02  0.00000E+00  9.000E+00
      21     1     1     2   501   511 -6.195585686E+01  1.174405859E+02  3.200077167E+02  3.464617702E+02  0.000000000E+00  0.00000E+00  9.000E+00
#rwgt            1           1  0.11986492542196929                5      451834           0
</event>
<event>
      5   9999  3.79277E-02  2.41044E+01 -1.00000E+00  1.59947E-01
      21    -1     0     0   502   501  0.000000000E+00  0.000000000E+00  8.049674782E+01  8.049674782E+01  0.000000000E+00  0.00000E+00  9.000E+00
      21    -1     0     0   501   512  0.000000000E+00  0.000000000E+00 -9.172228138E+02  9.172228138E+02  0.000000000E+00  0.00000E+00  9.000E+00
      25     1     1     2     0     0  1.778654280E+02  3.074952990E+01 -5.656587470E+02  6.067754627E+02  1.250000000E+02  0.00000E+00  9.000E+00
      25     1     1     2     0     0 -2.019094613E+02 -3.245429222E+01 -1.884784598E+02  3.049095627E+02  1.250000000E+02  0.00000E+00  9.000E+00
      21     1     1     2   502   512  2.404403334E+01  1.704762316E+00 -8.258885915E+01  8.603453615E+01  9.536743164E-07  0.00000E+00  9.000E+00
#rwgt            1           1   4.7623929524561091E-002           5      451885           0
</event>
<event>
      5   9999  3.79277E-02  1.13353E+02 -1.00000E+00  1.21428E-01
      21    -1     0     0   502   511  0.000000000E+00  0.000000000E+00  4.837499736E+01  4.837499736E+01  0.000000000E+00  0.00000E+00  9.000E+00
      21    -1     0     0   501   502  0.000000000E+00  0.000000000E+00 -1.532648405E+03  1.532648405E+03  0.000000000E+00  0.00000E+00  9.000E+00
      25     1     1     2     0     0  8.387073415E+01 -1.154091320E+02 -9.053385504E+02  9.249953830E+02  1.250000000E+02  0.00000E+00  9.000E+00
      25     1     1     2     0     0  2.476929607E+01  1.477536787E+02 -3.585325941E+02  4.081853606E+02  1.250000000E+02  0.00000E+00  9.000E+00
      21     1     1     2   501   511 -1.086400302E+02 -3.234454670E+01 -2.204022633E+02  2.478426588E+02  5.394796609E-06  0.00000E+00  9.000E+00
#rwgt            1           1   5.3820919782883843E-002           5      451992           0
</event>
<event>
      5   9999  3.79277E-02  2.50132E+01 -1.00000E+00  1.58734E-01
      21    -1     0     0   502   501  0.000000000E+00  0.000000000E+00  6.184177452E+02  6.184177452E+02  0.000000000E+00  0.00000E+00  9.000E+00
      21    -1     0     0   501   512  0.000000000E+00  0.000000000E+00 -1.883049394E+02  1.883049394E+02  0.000000000E+00  0.00000E+00  9.000E+00
      25     1     1     2     0     0  1.241535212E+02 -1.090873321E+02  5.032558124E+02  5.442476969E+02  1.250000000E+02  0.00000E+00  9.000E+00
      25     1     1     2     0     0 -1.371017928E+02  1.304883668E+02 -6.925729529E+01  2.371617347E+02  1.250000000E+02  0.00000E+00  9.000E+00
      21     1     1     2   502   512  1.294827156E+01 -2.140103474E+01 -3.885711386E+00  2.531325300E+01  1.737759082E-07  0.00000E+00  9.000E+00
#rwgt            1           1   4.2518760388368222E-002           5      452230           0
</event>
<event>
      5   9999  3.79277E-02  1.06948E+02 -1.00000E+00  1.22530E-01
      21    -1     0     0   502   501  0.000000000E+00  0.000000000E+00  7.970467252E+01  7.970467252E+01  0.000000000E+00  0.00000E+00  9.000E+00
      21    -1     0     0   501   511  0.000000000E+00  0.000000000E+00 -7.873096506E+02  7.873096506E+02  0.000000000E+00  0.00000E+00  9.000E+00
      25     1     1     2     0     0  7.909428680E+01  1.382220005E+02 -1.802299330E+02  2.710517596E+02  1.250000000E+02  0.00000E+00  9.000E+00
      25     1     1     2     0     0 -1.098390043E+02 -3.578885557E+01 -3.077627792E+02  3.516935844E+02  1.250000000E+02  0.00000E+00  9.000E+00
      21     1     1     2   502   511  3.074471752E+01 -1.024331449E+02 -2.196122658E+02  2.442689791E+02  2.697398305E-06  0.00000E+00  9.000E+00
#rwgt            1           1   3.0836850736764215E-002           5      452411           0
</event>
<event>
      5   9999  3.79277E-02  1.16637E+01 -1.00000E+00  1.88335E-01
      21    -1     0     0   502   512  0.000000000E+00  0.000000000E+00  4.904305972E+01  4.904305972E+01  0.000000000E+00  0.00000E+00  9.000E+00
      21    -1     0     0   501   502  0.000000000E+00  0.000000000E+00 -1.369225540E+03  1.369225540E+03  0.000000000E+00  0.00000E+00  9.000E+00
      25     1     1     2     0     0  2.172192471E+02 -4.245433903E+01 -5.803800479E+02  6.336028506E+02  1.250000000E+02  0.00000E+00  9.000E+00
      25     1     1     2     0     0 -2.098514375E+02  5.149635262E+01 -7.129790630E+02  7.554162061E+02  1.250000000E+02  0.00000E+00  9.000E+00
      21     1     1     2   501   512 -7.367809573E+00 -9.042013593E+00 -2.682336952E+01  2.924954324E+01  3.371747881E-07  0.00000E+00  9.000E+00
#rwgt            1           1   3.7304137093852135E-002           5      452443           0
</event>
<event>
      5   9999  3.79277E-02  1.82462E+01 -1.00000E+00  1.69726E-01
      21    -1     0     0   511   501  0.000000000E+00  0.000000000E+00  6.287737207E+02  6.287737207E+02  0.000000000E+00  0.00000E+00  9.000E+00
      21    -1     0     0   501   502  0.000000000E+00  0.000000000E+00 -1.600955830E+02  1.600955830E+02  0.000000000E+00  0.00000E+00  9.000E+00
      25     1     1     2     0     0 -1.513701677E+01 -1.542559040E+02  1.190993763E+02  2.320208496E+02  1.250000000E+02  0.00000E+00  9.000E+00
      25     1     1     2     0     0  1.479314588E+01  1.360129569E+02 -2.038284334E+01  1.864371796E+02  1.250000000E+02  0.00000E+00  9.000E+00
      21     1     1     2   511   502  3.438708962E-01  1.824294708E+01  3.699616048E+02  3.704112746E+02  7.629394531E-06  0.00000E+00  9.000E+00
#rwgt            1           1   4.2084081588157803E-002           5      452645           0
</event>
<event>
      5   9999  3.79277E-02  2.14126E+02 -1.00000E+00  1.10580E-01
      21    -1     0     0   502   501  0.000000000E+00  0.000000000E+00  4.670458598E+02  4.670458598E+02  0.000000000E+00  0.00000E+00  9.000E+00
      21    -1     0     0   512   502  0.000000000E+00  0.000000000E+00 -4.389238163E+02  4.389238163E+02  0.000000000E+00  0.00000E+00  9.000E+00
      25     1     1     2     0     0  2.393031013E+02 -2.273492209E+02  8.048394271E+01  3.620169990E+02  1.250000000E+02  0.00000E+00  9.000E+00
      25     1     1     2     0     0 -5.527082229E+01  1.178868318E+02  1.608605168E+02  2.417711207E+02  1.250000000E+02  0.00000E+00  9.000E+00
      21     1     1     2   512   501 -1.840322790E+02  1.094623891E+02 -2.132224161E+02  3.021815565E+02  3.814697266E-06  0.00000E+00  9.000E+00
#rwgt            1           1   4.4844456714151326E-002           5      452769           0
</event>
<event>
      5   9999  3.79277E-02  5.61870E+01 -1.00000E+00  1.36245E-01
      21    -1     0     0   502   501  0.000000000E+00  0.000000000E+00  3.482438195E+02  3.482438195E+02  0.000000000E+00  0.00000E+00  9.000E+00
      21    -1     0     0   511   502  0.000000000E+00  0.000000000E+00 -2.749115875E+02  2.749115875E+02  0.000000000E+00  0.00000E+00  9.000E+00
      25     1     1     2     0     0  1.873542647E+02 -1.122467419E+02  1.596544839E+02  2.980193044E+02  1.250000000E+02  0.00000E+00  9.000E+00
      25     1     1     2     0     0 -1.394574516E+02  1.416214675E+02 -1.630684357E+01  2.353634084E+02  1.250000000E+02  0.00000E+00  9.000E+00
      21     1     1     2   511   501 -4.789681308E+01 -2.937472560E+01 -7.001540834E+01  8.977269413E+01  1.348699152E-06  0.00000E+00  9.000E+00
#rwgt            1           1   1.8070868489650904E-002           5      452810           0
</event>
<event>
      5   9999  3.79277E-02  8.57320E+01 -1.00000E+00  1.26912E-01
      21    -1     0     0   512   501  0.000000000E+00  0.000000000E+00  1.826432578E+02  1.826432578E+02  0.000000000E+00  0.00000E+00  9.000E+00
      21    -1     0     0   501   502  0.000000000E+00  0.000000000E+00 -4.436620619E+02  4.436620619E+02  0.000000000E+00  0.00000E+00  9.000E+00
      25     1     1     2     0     0  5.059475505E+01  1.175346765E+01 -6.674326897E+01  1.509226199E+02  1.250000000E+02  0.00000E+00  9.000E+00
      25     1     1     2     0     0 -8.070331078E+01 -9.202456237E+01 -2.950850908E+02  3.430477449E+02  1.250000000E+02  0.00000E+00  9.000E+00
      21     1     1     2   512   502  3.010855572E+01  8.027109472E+01  1.008095557E+02  1.323349549E+02  0.000000000E+00  0.00000E+00  9.000E+00
#rwgt            1           1   3.4155810179624504E-002           5      452928           0
</event>
<event>
      5   9999  3.79277E-02  1.52475E+01 -1.00000E+00  1.76717E-01
      21    -1     0     0   502   511  0.000000000E+00  0.000000000E+00  6.749235998E+01  6.749235998E+01  0.000000000E+00  0.00000E+00  9.000E+00
      21    -1     0     0   501   502  0.000000000E+00  0.000000000E+00 -1.136889700E+03  1.136889700E+03  0.000000000E+00  0.00000E+00  9.000E+00
      25     1     1     2     0     0 -1.987482215E+02 -7.869552689E+01 -7.829255996E+02  8.211524438E+02  1.250000000E+02  0.00000E+00  9.000E+00
      25     1     1     2     0     0  1.844084393E+02  8.387798182E+01 -2.587712816E+02  3.516099607E+02  1.250000000E+02  0.00000E+00  9.000E+00
      21     1     1     2   501   511  1.433978216E+01 -5.182454932E+00 -2.770045916E+01  3.161965574E+01  3.371747881E-07  0.00000E+00  9.000E+00
#rwgt            1           1   3.9781114779450719E-002           5      452982           0
</event>
<event>
      5   9999  3.79277E-02  1.44919E+01 -1.00000E+00  1.78805E-01
      21    -1     0     0   502   501  0.000000000E+00  0.000000000E+00  1.882269405E+02  1.882269405E+02  0.000000000E+00  0.00000E+00  9.000E+00
      21    -1     0     0   512   502  0.000000000E+00  0.000000000E+00 -2.591195017E+02  2.591195017E+02  0.000000000E+00  0.00000E+00  9.000E+00
      25     1     1     2     0     0  8.044095759E+01  9.162540830E+01  5.923970860E+01  1.843917194E+02  1.250000000E+02  0.00000E+00  9.000E+00
      25     1     1     2     0     0 -8.068191957E+01 -7.713555186E+01 -4.083287231E+01  1.724870690E+02  1.250000000E+02  0.00000E+00  9.000E+00
      21     1     1     2   512   501  2.409619801E-01 -1.448985644E+01 -8.929939745E+01  9.046765382E+01  1.348699152E-06  0.00000E+00  9.000E+00
#rwgt            1           1   3.8731783196651243E-002           5      453205           0
</event>
<event>
      5   9999  3.79277E-02  5.36609E+01 -1.00000E+00  1.37347E-01
       2    -1     0     0   502     0  0.000000000E+00  0.000000000E+00  1.843861167E+03  1.843861167E+03  0.000000000E+00  0.00000E+00  9.000E+00
      21    -1     0     0   501   502  0.000000000E+00  0.000000000E+00 -1.739732740E+02  1.739732740E+02  0.000000000E+00  0.00000E+00  9.000E+00
      25     1     1     2     0     0 -2.276949328E+02  1.262376498E+02  2.089423006E+02  3.564587096E+02  1.250000000E+02  0.00000E+00  9.000E+00
      25     1     1     2     0     0  2.721191821E+02 -9.613815143E+01  1.484508373E+02  3.477844800E+02  1.250000000E+02  0.00000E+00  9.000E+00
       2     1     1     2   501     0 -4.442424935E+01 -3.009949841E+01  1.312494755E+03  1.313591252E+03  1.525878906E-05  0.00000E+00  9.000E+00
#rwgt            1           1   3.2059240466824609E-002           5      453340           0
</event>
<event>
      5   9999  3.79277E-02  7.33620E+01 -1.00000E+00  1.30197E-01
       1    -1     0     0   502     0  0.000000000E+00  0.000000000E+00  1.082791373E+03  1.082791373E+03  0.000000000E+00  0.00000E+00  9.000E+00
      21    -1     0     0   501   502  0.000000000E+00  0.000000000E+00 -6.476173940E+01  6.476173940E+01  0.000000000E+00  0.00000E+00  9.000E+00
      25     1     1     2     0     0 -2.494138407E+01  9.620338099E+01  4.195437285E+02  4.489087917E+02  1.250000000E+02  0.00000E+00  9.000E+00
      25     1     1     2     0     0 -3.985466391E+01 -6.180194837E+01  6.293816616E+01  1.580951859E+02  1.250000000E+02  0.00000E+00  9.000E+00
       1     1     1     2   501     0  6.479604798E+01 -3.440143262E+01  5.355477385E+02  5.405491343E+02  1.078959322E-05  0.00000E+00  9.000E+00
#rwgt            1           1   3.9898329886961674E-002           5      453468           0
</event>
<event>
      5   9999  3.79277E-02  1.37993E+01 -1.00000E+00  1.80867E-01
      21    -1     0     0   502   501  0.000000000E+00  0.000000000E+00  8.548525050E+02  8.548525050E+02  0.000000000E+00  0.00000E+00  9.000E+00
       5    -1     0     0   501     0  0.000000000E+00  0.000000000E+00 -2.511973552E+02  2.511973552E+02  0.000000000E+00  0.00000E+00  9.000E+00
      25     1     1     2     0     0  1.641636606E+02 -8.989120389E+01  4.095980901E+02  4.673603871E+02  1.250000000E+02  0.00000E+00  9.000E+00
      25     1     1     2     0     0 -1.549828163E+02  7.958911435E+01  3.885056305E+02  4.437518737E+02  1.250000000E+02  0.00000E+00  9.000E+00
       5     1     1     2   502     0 -9.180844325E+00  1.030208954E+01 -1.944485709E+02  1.949375994E+02  2.697398305E-06  0.00000E+00  9.000E+00
#rwgt            1           1   9.3920497736061426E-002           5      453542           0
</event>
<event>
      5   9999  3.79277E-02  2.12938E+01 -1.00000E+00  1.64154E-01
      21    -1     0     0   511   501  0.000000000E+00  0.000000000E+00  4.958282681E+02  4.958282681E+02  0.000000000E+00  0.00000E+00  9.000E+00
      21    -1     0     0   501   502  0.000000000E+00  0.000000000E+00 -1.847577628E+02  1.847577628E+02  0.000000000E+00  0.00000E+00  9.000E+00
      25     1     1     2     0     0 -2.201691570E+02 -1.577119490E+02  1.061310274E+02  3.166011869E+02  1.250000000E+02  0.00000E+00  9.000E+00
      25     1     1     2     0     0  2.016602730E+02  1.471835155E+02  1.859914306E+02  3.354812442E+02  1.250000000E+02  0.00000E+00  9.000E+00
      21     1     1     2   511   502  1.850888408E+01  1.052843355E+01  1.894804732E+01  2.850359978E+01  2.384185791E-07  0.00000E+00  9.000E+00
#rwgt            1           1   4.8290484211409579E-002           5      453824           0
</event>
<event>
      5   9999 -3.79277E-02  4.90357E+01 -1.00000E+00  1.39560E-01
      21    -1     0     0   502   501  0.000000000E+00  0.000000000E+00  1.310828517E+03  1.310828517E+03  0.000000000E+00  0.00000E+00  9.000E+00
      21    -1     0     0   501   512  0.000000000E+00  0.000000000E+00 -2.953893034E+02  2.953893034E+02  0.000000000E+00  0.00000E+00  9.000E+00
      25     1     1     2     0     0 -2.179722724E+00 -2.485531380E+02  1.164532232E+03  1.197306867E+03  1.250000000E+02  0.00000E+00  9.000E+00
      25     1     1     2     0     0  5.121523043E+01  2.486802073E+02 -3.554210105E+01  2.852246242E+02  1.250000000E+02  0.00000E+00  9.000E+00
      21     1     1     2   502   512 -4.903550770E+01 -1.270693096E-01 -1.135509176E+02  1.236863293E+02  1.907348633E-06  0.00000E+00  9.000E+00
#rwgt            1           1  -6.3856911339545949E-002           5      454092           0
</event>
<event>
      5   9999  3.79277E-02  6.79965E+01 -1.00000E+00  1.31863E-01
       1    -1     0     0   502     0  0.000000000E+00  0.000000000E+00  1.571296740E+03  1.571296740E+03  0.000000000E+00  0.00000E+00  9.000E+00
      21    -1     0     0   501   502  0.000000000E+00  0.000000000E+00 -1.146584043E+02  1.146584043E+02  0.000000000E+00  0.00000E+00  9.000E+00
      25     1     1     2     0     0  1.363236447E+01 -1.109152230E+02  2.150916630E+02  2.727222975E+02  1.250000000E+02  0.00000E+00  9.000E+00
      25     1     1     2     0     0 -5.937200173E+01  6.060210497E+01 -1.774183884E+01  1.521099029E+02  1.250000000E+02  0.00000E+00  9.000E+00
       1     1     1     2   501     0  4.573963726E+01  5.031311800E+01  1.259288511E+03  1.261122944E+03  1.525878906E-05  0.00000E+00  9.000E+00
#rwgt            1           1   4.1216686442989196E-002           5      454270           0
</event>
<event>
      5   9999  3.79277E-02  4.43271E+01 -1.00000E+00  1.42127E-01
      21    -1     0     0   502   501  0.000000000E+00  0.000000000E+00  2.920158153E+02  2.920158153E+02  0.000000000E+00  0.00000E+00  9.000E+00
      21    -1     0     0   501   511  0.000000000E+00  0.000000000E+00 -5.740539614E+02  5.740539614E+02  0.000000000E+00  0.00000E+00  9.000E+00
      25     1     1     2     0     0 -3.203809976E+01  1.382372961E+02 -2.555519926E+02  3.179116399E+02  1.250000000E+02  0.00000E+00  9.000E+00
      25     1     1     2     0     0  4.725497525E+01 -9.660390233E+01  2.327043027E+02  2.852045566E+02  1.250000000E+02  0.00000E+00  9.000E+00
      21     1     1     2   502   511 -1.521687549E+01 -4.163339380E+01 -2.591904562E+02  2.629535802E+02  0.000000000E+00  0.00000E+00  9.000E+00
#rwgt            1           1   4.4750314806223608E-002           5      454445           0
</event>
<event>
      5   9999  3.79277E-02  3.80057E+01 -1.00000E+00  1.46231E-01
      21    -1     0     0   512   501  0.000000000E+00  0.000000000E+00  3.103037832E+02  3.103037832E+02  0.000000000E+00  0.00000E+00  9.000E+00
      21    -1     0     0   501   502  0.000000000E+00  0.000000000E+00 -3.261445731E+02  3.261445731E+02  0.000000000E+00  0.00000E+00  9.000E+00
      25     1     1     2     0     0 -7.298798248E+01 -2.739563434E+02 -3.272009582E+01  3.115684970E+02  1.250000000E+02  0.00000E+00  9.000E+00
      25     1     1     2     0     0  6.859723571E+01  2.362051631E+02 -1.348475238E+01  2.762341368E+02  1.250000000E+02  0.00000E+00  9.000E+00
      21     1     1     2   512   502  4.390746775E+00  3.775118035E+01  3.036405830E+01  4.864572244E+01  4.768371582E-07  0.00000E+00  9.000E+00
#rwgt            1           1   3.6015620984908896E-002           5      454636           0
</event>
<event>
      5   9999  3.79277E-02  1.59896E+01 -1.00000E+00  1.74809E-01
      21    -1     0     0   511   501  0.000000000E+00  0.000000000E+00  1.086947373E+03  1.086947373E+03  0.000000000E+00  0.00000E+00  9.000E+00
      21    -1     0     0   501   502  0.000000000E+00  0.000000000E+00 -1.177097773E+03  1.177097773E+03  0.000000000E+00  0.00000E+00  9.000E+00
      25     1     1     2     0     0  9.450287408E+01 -8.500561279E+01 -8.975407778E+02  9.150744206E+02  1.250000000E+02  0.00000E+00  9.000E+00
      25     1     1     2     0     0 -1.015005388E+02  9.938265963E+01 -2.376661837E+02  3.037918486E+02  1.250000000E+02  0.00000E+00  9.000E+00
      21     1     1     2   511   502  6.997664701E+00 -1.437704683E+01  1.045056561E+03  1.045178876E+03  2.642899792E-05  0.00000E+00  9.000E+00
#rwgt            1           1   4.4292886936960756E-002           5      454771           0
</event>
<event>
      5   9999  3.79277E-02  3.10898E+01 -1.00000E+00  1.51971E-01
      21    -1     0     0   502   501  0.000000000E+00  0.000000000E+00  5.170502338E+02  5.170502338E+02  0.000000000E+00  0.00000E+00  9.000E+00
       2    -1     0     0   501     0  0.000000000E+00  0.000000000E+00 -7.361359362E+01  7.361359362E+01  0.000000000E+00  0.00000E+00  9.000E+00
      25     1     1     2     0     0  1.261103523E+02  2.878652184E+00  1.524479528E+02  2.340459055E+02  1.250000000E+02  0.00000E+00  9.000E+00
      25     1     1     2     0     0 -1.146012382E+02 -3.175970793E+01  2.237902314E+02  2.825759907E+02  1.250000000E+02  0.00000E+00  9.000E+00
       2     1     1     2   502     0 -1.150911403E+01  2.888105574E+01  6.719845598E+01  7.404193118E+01  1.348699152E-06  0.00000E+00  9.000E+00
#rwgt            1           1   4.3679335278048598E-002           5      454989           0
</event>
<event>
      5   9999  3.79277E-02  2.36013E+01 -1.00000E+00  1.60647E-01
      21    -1     0     0   502   501  0.000000000E+00  0.000000000E+00  1.053680833E+02  1.053680833E+02  0.000000000E+00  0.00000E+00  9.000E+00
      21    -1     0     0   501   511  0.000000000E+00  0.000000000E+00 -2.873634672E+02  2.873634672E+02  0.000000000E+00  0.00000E+00  9.000E+00
      25     1     1     2     0     0 -4.238080447E+01  9.350057548E+01 -9.881109163E+01  1.895445120E+02  1.250000000E+02  0.00000E+00  9.000E+00
      25     1     1     2     0     0  4.823377046E+01 -7.063658821E+01 -4.448808229E+01  1.578613749E+02  1.250000000E+02  0.00000E+00  9.000E+00
      21     1     1     2   502   511 -5.852965985E+00 -2.286398727E+01 -3.869620999E+01  4.532566372E+01  0.000000000E+00  0.00000E+00  9.000E+00
#rwgt            1           1   4.4462427724542612E-002           5      455117           0
</event>
<event>
      5   9999 -4.89861E-02  3.13834E+01 -1.00000E+00  1.51692E-01
      21    -1     0     0   502   512  0.000000000E+00  0.000000000E+00  2.359827729E+02  2.359827729E+02  0.000000000E+00  0.00000E+00  9.000E+00
      21    -1     0     0   501   502  0.000000000E+00  0.000000000E+00 -3.704673219E+02  3.704673219E+02  0.000000000E+00  0.00000E+00  9.000E+00
      25     1     1     2     0     0 -4.076955589E+01  2.209724734E+02  5.135112681E+01  2.622077972E+02  1.250000000E+02  0.00000E+00  9.000E+00
      25     1     1     2     0     0  6.464435289E+01 -2.006030661E+02 -1.931551225E+02  3.120166403E+02  1.250000000E+02  0.00000E+00  9.000E+00
      21     1     1     2   501   512 -2.387479700E+01 -2.036940730E+01  7.319446718E+00  3.222565726E+01  2.920019320E-07  0.00000E+00  9.000E+00
#rwgt            1           1 -0.37066852863993505                5      455451           0
</event>
<event>
      5   9999  3.79277E-02  6.93620E+01 -1.00000E+00  1.31422E-01
      21    -1     0     0   511   501  0.000000000E+00  0.000000000E+00  2.309553037E+03  2.309553037E+03  0.000000000E+00  0.00000E+00  9.000E+00
      21    -1     0     0   501   502  0.000000000E+00  0.000000000E+00 -1.082575727E+02  1.082575727E+02  0.000000000E+00  0.00000E+00  9.000E+00
      25     1     1     2     0     0  2.175927544E+02  3.803765176E+01  1.130968774E+02  2.778657470E+02  1.250000000E+02  0.00000E+00  9.000E+00
      25     1     1     2     0     0 -1.485834229E+02 -3.105250195E+01  3.587521164E+02  4.091080206E+02  1.250000000E+02  0.00000E+00  9.000E+00
      21     1     1     2   511   502 -6.900933150E+01 -6.985149803E+00  1.729446470E+03  1.730836842E+03  2.157918644E-05  0.00000E+00  9.000E+00
#rwgt            1           1   3.5759491320503996E-002           5      455585           0
</event>
<event>
      5   9999  3.79277E-02  1.62524E+02 -1.00000E+00  1.15030E-01
      21    -1     0     0   502   501  0.000000000E+00  0.000000000E+00  2.136682794E+02  2.136682794E+02  0.000000000E+00  0.00000E+00  9.000E+00
      21    -1     0     0   501   512  0.000000000E+00  0.000000000E+00 -4.590009372E+02  4.590009372E+02  0.000000000E+00  0.00000E+00  9.000E+00
      25     1     1     2     0     0 -7.888281799E+01 -1.463063946E+02  6.098550310E+00  2.080630972E+02  1.250000000E+02  0.00000E+00  9.000E+00
      25     1     1     2     0     0  1.772647651E+02  1.694291172E+01 -8.972747839E+01  2.353420481E+02  1.250000000E+02  0.00000E+00  9.000E+00
      21     1     1     2   502   512 -9.838194715E+01  1.293634829E+02 -1.617037297E+02  2.292640714E+02  1.907348633E-06  0.00000E+00  9.000E+00
#rwgt            1           1   3.7721107923735002E-002           5      455770           0
</event>
<event>
      5   9999  3.79277E-02  3.81307E+01 -1.00000E+00  1.46141E-01
      21    -1     0     0   502   511  0.000000000E+00  0.000000000E+00  1.037398333E+02  1.037398333E+02  0.000000000E+00  0.00000E+00  9.000E+00
      21    -1     0     0   501   502  0.000000000E+00  0.000000000E+00 -6.732377663E+02  6.732377663E+02  0.000000000E+00  0.00000E+00  9.000E+00
      25     1     1     2     0     0 -7.959880449E+01  2.306586677E+01 -3.213754390E+01  1.533813079E+02  1.250000000E+02  0.00000E+00  9.000E+00
      25     1     1     2     0     0  4.734380872E+01 -2.729532960E+00 -5.623386647E+02  5.780126819E+02  1.250000000E+02  0.00000E+00  9.000E+00
      21     1     1     2   501   511  3.225499576E+01 -2.033633381E+01  2.497827572E+01  4.558360980E+01  7.539457465E-07  0.00000E+00  9.000E+00
#rwgt            1           1   4.7196742992154317E-002           5      455830           0
</event>
<event>
      5   9999  3.79277E-02  2.43960E+01 -1.00000E+00  1.59551E-01
      21    -1     0     0   502   501  0.000000000E+00  0.000000000E+00  2.257106860E+02  2.257106860E+02  0.000000000E+00  0.00000E+00  9.000E+00
      21    -1     0     0   501   512  0.000000000E+00  0.000000000E+00 -1.705091233E+02  1.705091233E+02  0.000000000E+00  0.00000E+00  9.000E+00
      25     1     1     2     0     0  9.240729514E+01  6.995608452E+01 -4.857359523E+01  1.772494178E+02  1.250000000E+02  0.00000E+00  9.000E+00
      25     1     1     2     0     0 -9.414938558E+01 -4.562237837E+01  1.060536889E+02  1.944682317E+02  1.250000000E+02  0.00000E+00  9.000E+00
      21     1     1     2   502   512  1.742090433E+00 -2.433370615E+01 -2.278530996E+00  2.450215985E+01  5.289387509E-07  0.00000E+00  9.000E+00
#rwgt            1           1   4.4908982948664952E-002           5      456012           0
</event>
<event>
      5   9999  3.79277E-02  3.17819E+01 -1.00000E+00  1.51319E-01
      21    -1     0     0   511   501  0.000000000E+00  0.000000000E+00  8.127226413E+02  8.127226413E+02  0.000000000E+00  0.00000E+00  9.000E+00
      21    -1     0     0   501   502  0.000000000E+00  0.000000000E+00 -1.684963780E+02  1.684963780E+02  0.000000000E+00  0.00000E+00  9.000E+00
      25     1     1     2     0     0  8.753331354E+01  7.817979621E+01  2.361877501E+02  2.918626643E+02  1.250000000E+02  0.00000E+00  9.000E+00
      25     1     1     2     0     0 -6.998761677E+01 -1.046795735E+02 -8.398866816E+01  1.963037850E+02  1.250000000E+02  0.00000E+00  9.000E+00
      21     1     1     2   511   502 -1.754569676E+01  2.649977731E+01  4.920271814E+02  4.930525701E+02  5.394796609E-06  0.00000E+00  9.000E+00
#rwgt            1           1   7.2452682265664496E-003           5      456175           0
</event>
<event>
      5   9999  3.79277E-02  9.17325E+01 -1.00000E+00  1.25537E-01
      21    -1     0     0   502   501  0.000000000E+00  0.000000000E+00  4.316733029E+02  4.316733029E+02  0.000000000E+00  0.00000E+00  9.000E+00
      21    -1     0     0   512   502  0.000000000E+00  0.000000000E+00 -1.611359255E+02  1.611359255E+02  0.000000000E+00  0.00000E+00  9.000E+00
      25     1     1     2     0     0 -1.249147936E+02  1.414257973E+02  2.132433574E+02  3.109705634E+02  1.250000000E+02  0.00000E+00  9.000E+00
      25     1     1     2     0     0  1.224347788E+02 -4.972679044E+01  2.069514667E+01  1.830746237E+02  1.250000000E+02  0.00000E+00  9.000E+00
      21     1     1     2   512   501  2.480014876E+00 -9.169900690E+01  3.659887334E+01  9.876404138E+01  1.348699152E-06  0.00000E+00  9.000E+00
#rwgt            2          11   2.9264210038087973E-003           5      456281           0
</event>
<event>
      5   9999  3.79277E-02  2.32948E+01 -1.00000E+00  1.61084E-01
      21    -1     0     0   502   501  0.000000000E+00  0.000000000E+00  1.450421177E+02  1.450421177E+02  0.000000000E+00  0.00000E+00  9.000E+00
      21    -1     0     0   511   502  0.000000000E+00  0.000000000E+00 -2.946219709E+02  2.946219709E+02  0.000000000E+00  0.00000E+00  9.000E+00
      25     1     1     2     0     0 -3.695600156E+01  7.678242983E+01 -9.271619162E+01  1.774333108E+02  1.250000000E+02  0.00000E+00  9.000E+00
      25     1     1     2     0     0  5.320038946E+01 -6.008604970E+01  4.698725762E+01  1.557992849E+02  1.250000000E+02  0.00000E+00  9.000E+00
      21     1     1     2   511   501 -1.624438790E+01 -1.669638013E+01 -1.038509192E+02  1.064314928E+02  0.000000000E+00  0.00000E+00  9.000E+00
#rwgt            1           1   3.6633642486762256E-002           5      456301           0
</event>
<event>
      5   9999  3.79277E-02  3.65862E+01 -1.00000E+00  1.47285E-01
      21    -1     0     0   502   501  0.000000000E+00  0.000000000E+00  1.926964456E+02  1.926964456E+02  0.000000000E+00  0.00000E+00  9.000E+00
      21    -1     0     0   501   512  0.000000000E+00  0.000000000E+00 -3.007123396E+02  3.007123396E+02  0.000000000E+00  0.00000E+00  9.000E+00
      25     1     1     2     0     0 -7.058171014E+01 -1.777335569E+02 -5.525309385E+01  2.350508444E+02  1.250000000E+02  0.00000E+00  9.000E+00
      25     1     1     2     0     0  3.662265383E+01  1.641199265E+02 -2.222616123E+01  2.107025659E+02  1.250000000E+02  0.00000E+00  9.000E+00
      21     1     1     2   502   512  3.395905631E+01  1.361363043E+01 -3.053663895E+01  4.765537491E+01  3.371747881E-07  0.00000E+00  9.000E+00
#rwgt            1           1   7.4385572722281426E-002           5      456472           0
</event>
<event>
      5   9999  3.79277E-02  2.65467E+02 -1.00000E+00  1.07347E-01
      21    -1     0     0   502   501  0.000000000E+00  0.000000000E+00  3.530728131E+02  3.530728131E+02  0.000000000E+00  0.00000E+00  9.000E+00
      21    -1     0     0   501   511  0.000000000E+00  0.000000000E+00 -6.984632142E+02  6.984632142E+02  0.000000000E+00  0.00000E+00  9.000E+00
      25     1     1     2     0     0  3.737376612E+02 -1.108821993E+01 -7.668552986E+01  4.016322429E+02  1.250000000E+02  0.00000E+00  9.000E+00
      25     1     1     2     0     0 -1.456027583E+02 -1.246592611E+02  5.090118789E+01  2.344270153E+02  1.250000000E+02  0.00000E+00  9.000E+00
      21     1     1     2   502   511 -2.281349029E+02  1.357474810E+02 -3.196060592E+02  4.154767690E+02  3.814697266E-06  0.00000E+00  9.000E+00
#rwgt            1           1   4.0684616243304592E-002           5      456613           0
</event>
<event>
      5   9999  3.79277E-02  2.78129E+01 -1.00000E+00  1.55359E-01
      21    -1     0     0   502   512  0.000000000E+00  0.000000000E+00  2.891687558E+02  2.891687558E+02  0.000000000E+00  0.00000E+00  9.000E+00
      21    -1     0     0   501   502  0.000000000E+00  0.000000000E+00 -3.654593886E+02  3.654593886E+02  0.000000000E+00  0.00000E+00  9.000E+00
      25     1     1     2     0     0  2.482919753E+02 -1.277310828E+02 -1.105513665E+01  3.061230970E+02  1.250000000E+02  0.00000E+00  9.000E+00
      25     1     1     2     0     0 -2.646003683E+02  1.052012582E+02 -7.339662649E+01  3.195195211E+02  1.250000000E+02  0.00000E+00  9.000E+00
      21     1     1     2   501   512  1.630839301E+01  2.252982460E+01  8.161130338E+00  2.898552618E+01  1.192092896E-07  0.00000E+00  9.000E+00
#rwgt            1           1   3.4713119339788580E-002           5      456651           0
</event>
<event>
      5   9999  3.79277E-02  7.10567E+01 -1.00000E+00  1.30892E-01
      21    -1     0     0   502   501  0.000000000E+00  0.000000000E+00  3.875222495E+02  3.875222495E+02  0.000000000E+00  0.00000E+00  9.000E+00
      21    -1     0     0   501   511  0.000000000E+00  0.000000000E+00 -2.455830673E+02  2.455830673E+02  0.000000000E+00  0.00000E+00  9.000E+00
      25     1     1     2     0     0  1.199455224E+02 -2.658325882E+01 -6.783666747E+01  1.879372540E+02  1.250000000E+02  0.00000E+00  9.000E+00
      25     1     1     2     0     0 -1.862825275E+02  5.204812915E+01  2.679635379E+02  3.533265422E+02  1.250000000E+02  0.00000E+00  9.000E+00
      21     1     1     2   502   511  6.633700504E+01 -2.546487033E+01 -5.818768812E+01  9.184152060E+01  9.536743164E-07  0.00000E+00  9.000E+00
#rwgt            2          11   1.7850894233915405E-003           5      456926           0
</event>
<event>
      5   9999  3.79277E-02  2.19279E+01 -1.00000E+00  1.63138E-01
      21    -1     0     0   502   501  0.000000000E+00  0.000000000E+00  3.856817724E+01  3.856817724E+01  0.000000000E+00  0.00000E+00  9.000E+00
      21    -1     0     0   501   512  0.000000000E+00  0.000000000E+00 -1.125124979E+03  1.125124979E+03  0.000000000E+00  0.00000E+00  9.000E+00
      25     1     1     2     0     0 -1.058101296E+02  2.707638530E+01 -8.447444047E+02  8.608989624E+02  1.250000000E+02  0.00000E+00  9.000E+00
      25     1     1     2     0     0  8.485735233E+01 -3.354261059E+01 -1.809633812E+02  2.381147251E+02  1.250000000E+02  0.00000E+00  9.000E+00
      21     1     1     2   502   512  2.095277730E+01  6.466225294E+00 -6.084901557E+01  6.467946847E+01  6.743495762E-07  0.00000E+00  9.000E+00
#rwgt            1           1   4.8224036416708194E-002           5      456976           0
</event>
<event>
      5   9999  3.79277E-02  6.50734E+01 -1.00000E+00  1.32846E-01
      21    -1     0     0   511   501  0.000000000E+00  0.000000000E+00  5.237099023E+02  5.237099023E+02  0.000000000E+00  0.00000E+00  9.000E+00
      21    -1     0     0   501   502  0.000000000E+00  0.000000000E+00 -1.037482349E+02  1.037482349E+02  0.000000000E+00  0.00000E+00  9.000E+00
      25     1     1     2     0     0  5.250495848E+01 -3.864490502E+00 -2.421426930E+01  1.377789381E+02  1.250000000E+02  0.00000E+00  9.000E+00
      25     1     1     2     0     0 -6.326615338E+00  4.971330051E+01  3.517008643E+02  3.766031549E+02  1.250000000E+02  0.00000E+00  9.000E+00
      21     1     1     2   511   502 -4.617834315E+01 -4.584881001E+01  9.247507239E+01  1.130760442E+02  1.907348633E-06  0.00000E+00  9.000E+00
#rwgt            1           1   5.5457259789919722E-002           5      457130           0
</event>
<event>
      5   9999  3.79277E-02  4.47305E+01 -1.00000E+00  1.41892E-01
      21    -1     0     0   502   501  0.000000000E+00  0.000000000E+00  1.802513177E+02  1.802513177E+02  0.000000000E+00  0.00000E+00  9.000E+00
      21    -1     0     0   501   512  0.000000000E+00  0.000000000E+00 -4.523835008E+02  4.523835008E+02  0.000000000E+00  0.00000E+00  9.000E+00
      25     1     1     2     0     0 -4.923899481E+00  1.815900482E+02 -2.372733298E+02  3.239179270E+02  1.250000000E+02  0.00000E+00  9.000E+00
      25     1     1     2     0     0 -2.534133257E+01 -2.145268099E+02  3.783866824E+00  2.496061957E+02  1.250000000E+02  0.00000E+00  9.000E+00
      21     1     1     2   502   512  3.026523205E+01  3.293676173E+01 -3.864272012E+01  5.911069584E+01  4.768371582E-07  0.00000E+00  9.000E+00
#rwgt            1           1   2.8881687502540290E-002           5      457338           0
</event>
<event>
      5   9999  3.79277E-02  2.20183E+01 -1.00000E+00  1.62996E-01
      21    -1     0     0   502   501  0.000000000E+00  0.000000000E+00  1.824085751E+02  1.824085751E+02  0.000000000E+00  0.00000E+00  9.000E+00
      21    -1     0     0   511   502  0.000000000E+00  0.000000000E+00 -4.320588805E+02  4.320588805E+02  0.000000000E+00  0.00000E+00  9.000E+00
      25     1     1     2     0     0  7.208791774E+01 -1.768590803E+02 -1.161000206E+02  2.560859562E+02  1.250000000E+02  0.00000E+00  9.000E+00
      25     1     1     2     0     0 -8.863803983E+01  1.623367447E+02 -2.119734544E-01  2.232374649E+02  1.250000000E+02  0.00000E+00  9.000E+00
      21     1     1     2   511   501  1.655012209E+01  1.452233561E+01 -1.333383114E+02  1.351440345E+02  2.697398305E-06  0.00000E+00  9.000E+00
#rwgt            1           1   3.8070391756389793E-002           5      457498           0
</event>
<event>
      5   9999 -3.79277E-02  6.20956E+01 -1.00000E+00  1.33911E-01
      21    -1     0     0   502   512  0.000000000E+00  0.000000000E+00  1.243096819E+03  1.243096819E+03  0.000000000E+00  0.00000E+00  9.000E+00
      21    -1     0     0   501   502  0.000000000E+00  0.000000000E+00 -7.160119203E+01  7.160119203E+01  0.000000000E+00  0.00000E+00  9.000E+00
      25     1     1     2     0     0 -1.700408673E+02 -3.005330375E+01  2.208416698E+02  3.069415917E+02  1.250000000E+02  0.00000E+00  9.000E+00
      25     1     1     2     0     0  1.305922980E+02  7.800822504E+01  3.319741770E+02  3.859682444E+02  1.250000000E+02  0.00000E+00  9.000E+00
      21     1     1     2   501   512  3.944856933E+01 -4.795492129E+01  6.186797801E+02  6.217881749E+02  1.078959322E-05  0.00000E+00  9.000E+00
#rwgt            1           1  -5.7833131107325499E-002           5      457669           0
</event>
<event>
      5   9999  3.79277E-02  7.68126E+01 -1.00000E+00  1.29210E-01
      21    -1     0     0   511   501  0.000000000E+00  0.000000000E+00  7.865473084E+01  7.865473084E+01  0.000000000E+00  0.00000E+00  9.000E+00
      21    -1     0     0   501   502  0.000000000E+00  0.000000000E+00 -8.154616922E+02  8.154616922E+02  0.000000000E+00  0.00000E+00  9.000E+00
      25     1     1     2     0     0 -3.724614312E+01  1.398090442E+02 -1.291446094E+02  2.307318230E+02  1.250000000E+02  0.00000E+00  9.000E+00
      25     1     1     2     0     0  9.103119785E+01 -8.496976303E+01 -5.065852143E+02  5.364327721E+02  1.250000000E+02  0.00000E+00  9.000E+00
      21     1     1     2   511   502 -5.378505474E+01 -5.483928113E+01 -1.010771377E+02  1.269518280E+02  1.907348633E-06  0.00000E+00  9.000E+00
#rwgt            1           1   3.6546280430445909E-002           5      457986           0
</event>
<event>
      5   9999  3.79277E-02  4.34248E+01 -1.00000E+00  1.42662E-01
      21    -1     0     0   502   501  0.000000000E+00  0.000000000E+00  2.975045617E+03  2.975045617E+03  0.000000000E+00  0.00000E+00  9.000E+00
       1    -1     0     0   501     0  0.000000000E+00  0.000000000E+00 -6.625290412E+02  6.625290412E+02  0.000000000E+00  0.00000E+00  9.000E+00
      25     1     1     2     0     0 -1.537859797E+02  2.903849816E+02  2.198699657E+03  2.226629458E+03  1.250000000E+02  0.00000E+00  9.000E+00
      25     1     1     2     0     0  1.228349996E+02 -2.599260180E+02  7.293574385E+02  7.938748296E+02  1.250000000E+02  0.00000E+00  9.000E+00
       1     1     1     2   502     0  3.095098013E+01 -3.045896351E+01 -6.155405190E+02  6.170703705E+02  7.629394531E-06  0.00000E+00  9.000E+00
#rwgt            1           1   5.8970075118171046E-002           5      458089           0
</event>
<event>
      5   9999  3.79277E-02  3.63636E+01 -1.00000E+00  1.47455E-01
      21    -1     0     0   511   501  0.000000000E+00  0.000000000E+00  6.916696608E+01  6.916696608E+01  0.000000000E+00  0.00000E+00  9.000E+00
      21    -1     0     0   501   502  0.000000000E+00  0.000000000E+00 -3.828937475E+02  3.828937475E+02  0.000000000E+00  0.00000E+00  9.000E+00
      25     1     1     2     0     0 -4.703626186E+01  1.275902026E+00 -8.957633420E+01  1.608196428E+02  1.250000000E+02  0.00000E+00  9.000E+00
      25     1     1     2     0     0  3.924665080E+01 -3.679542721E+01 -2.137953864E+02  2.534317863E+02  1.250000000E+02  0.00000E+00  9.000E+00
      21     1     1     2   511   502  7.789611065E+00  3.551952518E+01 -1.035506083E+01  3.780928450E+01  6.529361695E-07  0.00000E+00  9.000E+00
#rwgt            1           1   4.6875100411484093E-002           5      458248           0
</event>
<event>
      5   9999  3.79277E-02  4.54565E+01 -1.00000E+00  1.41478E-01
      21    -1     0     0   502   501  0.000000000E+00  0.000000000E+00  1.584331390E+02  1.584331390E+02  0.000000000E+00  0.00000E+00  9.000E+00
      21    -1     0     0   501   512  0.000000000E+00  0.000000000E+00 -2.749510776E+02  2.749510776E+02  0.000000000E+00  0.00000E+00  9.000E+00
      25     1     1     2     0     0 -7.893237157E+01  2.436916593E+01  7.964924397E+01  1.696855256E+02  1.250000000E+02  0.00000E+00  9.000E+00
      25     1     1     2     0     0  3.393628339E+01 -1.791561976E+01 -1.468495518E+02  1.966276472E+02  1.250000000E+02  0.00000E+00  9.000E+00
      21     1     1     2   502   512  4.499608817E+01 -6.453546166E+00 -4.931763078E+01  6.707104379E+01  6.743495762E-07  0.00000E+00  9.000E+00
#rwgt            1           1   4.2972933774790549E-002           5      458360           0
</event>
<event>
      5   9999  3.79277E-02  4.49536E+01 -1.00000E+00  1.41764E-01
      21    -1     0     0   502   501  0.000000000E+00  0.000000000E+00  8.133734655E+02  8.133734655E+02  0.000000000E+00  0.00000E+00  9.000E+00
      21    -1     0     0   511   502  0.000000000E+00  0.000000000E+00 -1.398401038E+02  1.398401038E+02  0.000000000E+00  0.00000E+00  9.000E+00
      25     1     1     2     0     0  2.189092978E+02 -1.277409154E+02  4.865277454E+02  5.626484419E+02  1.250000000E+02  0.00000E+00  9.000E+00
      25     1     1     2     0     0 -1.742289890E+02  1.227915338E+02  2.230997040E+02  3.329143724E+02  1.250000000E+02  0.00000E+00  9.000E+00
      21     1     1     2   511   501 -4.468030883E+01  4.949381586E+00 -3.609408774E+01  5.765075494E+01  1.348699152E-06  0.00000E+00  9.000E+00
#rwgt            1           1   2.4475983973939405E-002           5      458459           0
</event>
<event>
      5   9999  3.79277E-02  1.62328E+02 -1.00000E+00  1.15050E-01
      21    -1     0     0   502   501  0.000000000E+00  0.000000000E+00  3.263159742E+02  3.263159742E+02  0.000000000E+00  0.00000E+00  9.000E+00
       1    -1     0     0   501     0  0.000000000E+00  0.000000000E+00 -4.935699618E+02  4.935699618E+02  0.000000000E+00  0.00000E+00  9.000E+00
      25     1     1     2     0     0  1.375395001E+02 -4.572648521E+01  2.412768653E+02  3.079732964E+02  1.250000000E+02  0.00000E+00  9.000E+00
      25     1     1     2     0     0 -1.719283447E+01 -6.321020669E+01 -1.445623314E+02  2.020257198E+02  1.250000000E+02  0.00000E+00  9.000E+00
       1     1     1     2   502     0 -1.203466656E+02  1.089366919E+02 -2.639685215E+02  3.098869199E+02  3.814697266E-06  0.00000E+00  9.000E+00
#rwgt            2          12   1.5194309579435894E-004           5      458641           0
</event>
<event>
      5   9999  3.79277E-02  9.90151E+01 -1.00000E+00  1.24022E-01
      21    -1     0     0   511   501  0.000000000E+00  0.000000000E+00  1.358976696E+02  1.358976696E+02  0.000000000E+00  0.00000E+00  9.000E+00
      21    -1     0     0   501   502  0.000000000E+00  0.000000000E+00 -8.121237532E+02  8.121237532E+02  0.000000000E+00  0.00000E+00  9.000E+00
      25     1     1     2     0     0 -2.859039296E+01 -1.187276482E+02 -2.455504489E+01  1.764698706E+02  1.250000000E+02  0.00000E+00  9.000E+00
      25     1     1     2     0     0 -6.472513759E+01  8.561863256E+01 -6.520424939E+02  6.725357295E+02  1.250000000E+02  0.00000E+00  9.000E+00
      21     1     1     2   511   502  9.331553055E+01  3.310901563E+01  3.714551733E-01  9.901582266E+01  6.067078735E-07  0.00000E+00  9.000E+00
#rwgt            2          11   2.4481449079432629E-003           5      458660           0
</event>
<event>
      5   9999  3.79277E-02  1.18319E+02 -1.00000E+00  1.20629E-01
      21    -1     0     0   512   501  0.000000000E+00  0.000000000E+00  2.564558699E+02  2.564558699E+02  0.000000000E+00  0.00000E+00  9.000E+00
      21    -1     0     0   501   502  0.000000000E+00  0.000000000E+00 -8.046609090E+02  8.046609090E+02  0.000000000E+00  0.00000E+00  9.000E+00
      25     1     1     2     0     0 -2.195327180E+02 -8.960818832E+01 -6.679536784E+02  7.197300592E+02  1.250000000E+02  0.00000E+00  9.000E+00
      25     1     1     2     0     0  1.469667877E+02 -3.845247262E+00  3.568663304E+01  1.962461678E+02  1.250000000E+02  0.00000E+00  9.000E+00
      21     1     1     2   512   502  7.256593035E+01  9.345343559E+01  8.406200630E+01  1.451405518E+02  3.693564745E-06  0.00000E+00  9.000E+00
#rwgt            1           1   4.5316162342788374E-002           5      458710           0
</event>
<event>
      5   9999  3.79277E-02  3.40929E+01 -1.00000E+00  1.49280E-01
      21    -1     0     0   502   511  0.000000000E+00  0.000000000E+00  1.453250154E+02  1.453250154E+02  0.000000000E+00  0.00000E+00  9.000E+00
      21    -1     0     0   501   502  0.000000000E+00  0.000000000E+00 -4.585552833E+02  4.585552833E+02  0.000000000E+00  0.00000E+00  9.000E+00
      25     1     1     2     0     0 -9.654352432E+01  3.356235877E+01 -3.639354554E+02  3.981470830E+02  1.250000000E+02  0.00000E+00  9.000E+00
      25     1     1     2     0     0  8.814903148E+01 -5.190535247E-01  1.092957564E+01  1.533459383E+02  1.250000000E+02  0.00000E+00  9.000E+00
      21     1     1     2   501   511  8.394492847E+00 -3.304330525E+01  3.977561184E+01  5.238727736E+01  4.768371582E-07  0.00000E+00  9.000E+00
#rwgt            1           1   4.0668572989287534E-002           5      458872           0
</event>
<event>
      5   9999  3.79277E-02  2.48299E+01 -1.00000E+00  1.58973E-01
       5    -1     0     0   502     0  0.000000000E+00  0.000000000E+00  1.545833484E+02  1.545833484E+02  0.000000000E+00  0.00000E+00  9.000E+00
      21    -1     0     0   501   502  0.000000000E+00  0.000000000E+00 -3.468666296E+02  3.468666296E+02  0.000000000E+00  0.00000E+00  9.000E+00
      25     1     1     2     0     0 -7.577918118E+01 -1.129358092E+02 -1.714963532E+02  2.520574944E+02  1.250000000E+02  0.00000E+00  9.000E+00
      25     1     1     2     0     0  6.616715898E+01  9.004186249E+01 -7.956619867E+01  1.855839699E+02  1.250000000E+02  0.00000E+00  9.000E+00
       5     1     1     2   501     0  9.612022199E+00  2.289394672E+01  5.877927063E+01  6.380851372E+01  1.168007728E-06  0.00000E+00  9.000E+00
#rwgt            1           1   3.6670400887471019E-002           5      459001           0
</event>
<event>
      5   9999  3.79277E-02  6.24007E+01 -1.00000E+00  1.33799E-01
      21    -1     0     0   502   511  0.000000000E+00  0.000000000E+00  7.704529852E+01  7.704529852E+01  0.000000000E+00  0.00000E+00  9.000E+00
      21    -1     0     0   501   502  0.000000000E+00  0.000000000E+00 -1.244223607E+03  1.244223607E+03  0.000000000E+00  0.00000E+00  9.000E+00
      25     1     1     2     0     0 -9.199794421E+01  8.839707431E+01 -3.471565921E+02  3.904105069E+02  1.250000000E+02  0.00000E+00  9.000E+00
      25     1     1     2     0     0  1.394136176E+02 -1.289630857E+02 -8.360653445E+02  8.664282396E+02  1.250000000E+02  0.00000E+00  9.000E+00
      21     1     1     2   501   511 -4.741567335E+01  4.056601143E+01  1.604362818E+01  6.443015884E+01  4.129530925E-07  0.00000E+00  9.000E+00
#rwgt            1           1   8.6036830043076471E-003           5      459131           0
</event>
<event>
      5   9999  3.79277E-02  4.40371E+01 -1.00000E+00  1.42297E-01
      21    -1     0     0   502   512  0.000000000E+00  0.000000000E+00  3.150715510E+02  3.150715510E+02  0.000000000E+00  0.00000E+00  9.000E+00
      21    -1     0     0   501   502  0.000000000E+00  0.000000000E+00 -4.044931874E+02  4.044931874E+02  0.000000000E+00  0.00000E+00  9.000E+00
      25     1     1     2     0     0 -2.427721874E+02 -1.091726869E+02 -2.395109083E+02  3.792723108E+02  1.250000000E+02  0.00000E+00  9.000E+00
      25     1     1     2     0     0  2.175685657E+02  7.306117155E+01  1.268461741E+02  2.904977925E+02  1.250000000E+02  0.00000E+00  9.000E+00
      21     1     1     2   501   512  2.520362176E+01  3.611151535E+01  2.324309783E+01  4.979463512E+01  8.259061849E-07  0.00000E+00  9.000E+00
#rwgt            1           1   4.1199210322579574E-002           5      459321           0
</event>
<event>
      5   9999  3.79277E-02  1.11522E+02 -1.00000E+00  1.21735E-01
       2    -1     0     0   502     0  0.000000000E+00  0.000000000E+00  4.686008402E+02  4.686008402E+02  0.000000000E+00  0.00000E+00  9.000E+00
      21    -1     0     0   501   502  0.000000000E+00  0.000000000E+00 -4.730398482E+02  4.730398482E+02  0.000000000E+00  0.00000E+00  9.000E+00
      25     1     1     2     0     0  1.477782925E+02 -3.259351151E+02 -2.446722140E+02  4.511780306E+02  1.250000000E+02  0.00000E+00  9.000E+00
      25     1     1     2     0     0 -1.166945834E+02  2.188321084E+02  6.908628078E+01  2.861870571E+02  1.250000000E+02  0.00000E+00  9.000E+00
       2     1     1     2   501     0 -3.108370903E+01  1.071030067E+02  1.711469252E+02  2.042756007E+02  2.697398305E-06  0.00000E+00  9.000E+00
#rwgt            1           1   3.8920717900925689E-002           5      459442           0
</event>
<event>
      5   9999  3.79277E-02  6.06544E+01 -1.00000E+00  1.34452E-01
      21    -1     0     0   502   511  0.000000000E+00  0.000000000E+00  5.317854611E+02  5.317854611E+02  0.000000000E+00  0.00000E+00  9.000E+00
      21    -1     0     0   501   502  0.000000000E+00  0.000000000E+00 -1.820099230E+02  1.820099230E+02  0.000000000E+00  0.00000E+00  9.000E+00
      25     1     1     2     0     0 -1.409029337E+02  2.142652646E+02  2.697394569E+02  3.926163712E+02  1.250000000E+02  0.00000E+00  9.000E+00
      25     1     1     2     0     0  1.368335139E+02 -1.537475109E+02  3.022708126E+01  2.426940133E+02  1.250000000E+02  0.00000E+00  9.000E+00
      21     1     1     2   501   511  4.069419755E+00 -6.051775364E+01  4.980900002E+01  7.848499962E+01  1.168007728E-06  0.00000E+00  9.000E+00
#rwgt            1           1   1.8132774024233991E-002           5      459505           0
</event>
<event>
      5   9999  3.79277E-02  1.16961E+02 -1.00000E+00  1.20843E-01
      21    -1     0     0   502   501  0.000000000E+00  0.000000000E+00  1.400396929E+03  1.400396929E+03  0.000000000E+00  0.00000E+00  9.000E+00
      21    -1     0     0   512   502  0.000000000E+00  0.000000000E+00 -7.763469164E+01  7.763469164E+01  0.000000000E+00  0.00000E+00  9.000E+00
      25     1     1     2     0     0  1.344980887E+02 -4.865351832E+01  3.037516691E+02  3.582554636E+02  1.250000000E+02  0.00000E+00  9.000E+00
      25     1     1     2     0     0 -2.004824782E+02 -4.791793947E+01  9.579860384E+02  9.878520146E+02  1.250000000E+02  0.00000E+00  9.000E+00
      21     1     1     2   512   501  6.598438947E+01  9.657145779E+01  6.102452984E+01  1.319241424E+02  2.132480600E-06  0.00000E+00  9.000E+00
#rwgt            1           1   2.8386303262188928E-002           5      459575           0
</event>
<event>
      5   9999  3.79277E-02  4.26529E+01 -1.00000E+00  1.43132E-01
      21    -1     0     0   502   501  0.000000000E+00  0.000000000E+00  1.177213564E+03  1.177213564E+03  0.000000000E+00  0.00000E+00  9.000E+00
       1    -1     0     0   501     0  0.000000000E+00  0.000000000E+00 -4.483480753E+01  4.483480753E+01  0.000000000E+00  0.00000E+00  9.000E+00
      25     1     1     2     0     0  3.903146394E+01 -4.705910287E+01  1.269171965E+02  1.883374342E+02  1.250000000E+02  0.00000E+00  9.000E+00
      25     1     1     2     0     0 -7.901789935E+01  6.190332054E+01  9.515837495E+02  9.649935139E+02  1.250000000E+02  0.00000E+00  9.000E+00
       1     1     1     2   502     0  3.998643541E+01 -1.484421768E+01  5.387780998E+01  6.871742300E+01  1.168007728E-06  0.00000E+00  9.000E+00
#rwgt            1           1   4.3222039180276055E-002           5      459707           0
</event>
<event>
      5   9999  3.79277E-02  8.44838E+00 -1.00000E+00  2.04621E-01
      21    -1     0     0   502   511  0.000000000E+00  0.000000000E+00  2.310801056E+02  2.310801056E+02  0.000000000E+00  0.00000E+00  9.000E+00
      21    -1     0     0   501   502  0.000000000E+00  0.000000000E+00 -2.111420484E+02  2.111420484E+02  0.000000000E+00  0.00000E+00  9.000E+00
      25     1     1     2     0     0  1.700471030E+01 -1.491459754E+02 -5.206460213E+01  2.021618286E+02  1.250000000E+02  0.00000E+00  9.000E+00
      25     1     1     2     0     0 -8.556527351E+00  1.490886938E+02  2.978982391E+01  1.970103713E+02  1.250000000E+02  0.00000E+00  9.000E+00
      21     1     1     2   501   511 -8.448182953E+00  5.728155780E-02  4.221283539E+01  4.304995410E+01  0.000000000E+00  0.00000E+00  9.000E+00
#rwgt            1           1   3.0799831347126726E-002           5      459785           0
</event>
<event>
      5   9999  3.79277E-02  3.87873E+02 -1.00000E+00  1.02089E-01
      21    -1     0     0   502   501  0.000000000E+00  0.000000000E+00  4.363772606E+02  4.363772606E+02  0.000000000E+00  0.00000E+00  9.000E+00
      21    -1     0     0   501   512  0.000000000E+00  0.000000000E+00 -7.922990426E+02  7.922990426E+02  0.000000000E+00  0.00000E+00  9.000E+00
      25     1     1     2     0     0 -9.766752477E+01  2.718185408E+01 -3.588465911E+02  3.932857416E+02  1.250000000E+02  0.00000E+00  9.000E+00
      25     1     1     2     0     0 -2.773444633E+02  7.187027961E+01  2.280373128E+02  3.869254508E+02  1.250000000E+02  0.00000E+00  9.000E+00
      21     1     1     2   502   512  3.750119881E+02 -9.905213369E+01 -2.251125037E+02  4.484651109E+02  5.394796609E-06  0.00000E+00  9.000E+00
#rwgt            2          11   9.3786386054587440E-004           5      459997           0
</event>
<event>
      5   9999  3.79277E-02  7.28779E+01 -1.00000E+00  1.30341E-01
      21    -1     0     0   502   501  0.000000000E+00  0.000000000E+00  2.796632643E+02  2.796632643E+02  0.000000000E+00  0.00000E+00  9.000E+00
      21    -1     0     0   511   502  0.000000000E+00  0.000000000E+00 -3.178306985E+02  3.178306985E+02  0.000000000E+00  0.00000E+00  9.000E+00
      25     1     1     2     0     0 -1.796001665E+02 -9.836060717E+01  1.124095630E+02  2.649376128E+02  1.250000000E+02  0.00000E+00  9.000E+00
      25     1     1     2     0     0  1.204761787E+02  1.409697617E+02 -1.130295803E+02  2.505746782E+02  1.250000000E+02  0.00000E+00  9.000E+00
      21     1     1     2   511   501  5.912398776E+01 -4.260915450E+01 -3.754741696E+01  8.198167170E+01  2.023048729E-06  0.00000E+00  9.000E+00
#rwgt            1           1   3.5870389365259020E-002           5      460047           0
</event>
<event>
      5   9999 -3.79277E-02  1.24662E+01 -1.00000E+00  1.85304E-01
      21    -1     0     0   502   501  0.000000000E+00  0.000000000E+00  1.261830116E+03  1.261830116E+03  0.000000000E+00  0.00000E+00  9.000E+00
      21    -1     0     0   512   502  0.000000000E+00  0.000000000E+00 -3.336144314E+01  3.336144314E+01  0.000000000E+00  0.00000E+00  9.000E+00
      25     1     1     2     0     0  8.850763766E+01  1.252790219E+02  6.362324038E+02  6.662920583E+02  1.250000000E+02  0.00000E+00  9.000E+00
      25     1     1     2     0     0 -7.670858045E+01 -1.293025656E+02  5.769207550E+02  6.091518016E+02  1.250000000E+02  0.00000E+00  9.000E+00
      21     1     1     2   512   501 -1.179905721E+01  4.023543707E+00  1.531551366E+01  1.974769895E+01  4.129530925E-07  0.00000E+00  9.000E+00
#rwgt            1           1  -3.7201439575926983E-002           5      460161           0
</event>
<event>
      5   9999  3.79277E-02  3.67168E+01 -1.00000E+00  1.47185E-01
      21    -1     0     0   511   501  0.000000000E+00  0.000000000E+00  1.742817206E+02  1.742817206E+02  0.000000000E+00  0.00000E+00  9.000E+00
      21    -1     0     0   501   502  0.000000000E+00  0.000000000E+00 -6.021362255E+02  6.021362255E+02  0.000000000E+00  0.00000E+00  9.000E+00
      25     1     1     2     0     0  5.096397856E+00  2.386372845E+02 -2.144143280E+02  3.443431877E+02  1.250000000E+02  0.00000E+00  9.000E+00
      25     1     1     2     0     0 -4.760987450E+00 -2.019220251E+02 -2.731481561E+02  3.619807818E+02  1.250000000E+02  0.00000E+00  9.000E+00
      21     1     1     2   511   502 -3.354104060E-01 -3.671525944E+01  5.970797926E+01  7.009397665E+01  1.784161275E-06  0.00000E+00  9.000E+00
#rwgt            1           1   2.9039233388659942E-002           5      460348           0
</event>
<event>
      5   9999 -3.79277E-02  5.47884E+01 -1.00000E+00  1.36847E-01
      21    -1     0     0   502   501  0.000000000E+00  0.000000000E+00  1.206958110E+03  1.206958110E+03  0.000000000E+00  0.00000E+00  9.000E+00
      21    -1     0     0   501   512  0.000000000E+00  0.000000000E+00 -1.807648374E+02  1.807648374E+02  0.000000000E+00  0.00000E+00  9.000E+00
      25     1     1     2     0     0 -2.672484393E+02 -8.963152219E+01  9.881545992E+02  1.035147357E+03  1.250000000E+02  0.00000E+00  9.000E+00
      25     1     1     2     0     0  2.209319114E+02  1.188983954E+02 -8.871109749E+00  2.804486307E+02  1.250000000E+02  0.00000E+00  9.000E+00
      21     1     1     2   502   512  4.631652790E+01 -2.926687322E+01  4.690978330E+01  7.212696025E+01  6.743495762E-07  0.00000E+00  9.000E+00
#rwgt            1           1 -0.22921451068820217                5      460463           0
</event>
<event>
      5   9999  3.79277E-02  9.34032E+01 -1.00000E+00  1.25176E-01
      21    -1     0     0   502   501  0.000000000E+00  0.000000000E+00  2.060837596E+03  2.060837596E+03  0.000000000E+00  0.00000E+00  9.000E+00
      21    -1     0     0   501   511  0.000000000E+00  0.000000000E+00 -5.782301665E+01  5.782301665E+01  0.000000000E+00  0.00000E+00  9.000E+00
      25     1     1     2     0     0 -9.241247869E+01 -1.493125283E+02  6.833100292E+02  7.164997511E+02  1.250000000E+02  0.00000E+00  9.000E+00
      25     1     1     2     0     0  2.433582037E+01  8.536162634E+01  1.297011054E+03  1.306040395E+03  1.250000000E+02  0.00000E+00  9.000E+00
      21     1     1     2   502   511  6.807665832E+01  6.395090195E+01  2.269349591E+01  9.612046621E+01  1.305872339E-06  0.00000E+00  9.000E+00
#rwgt            1           1  0.12202071392664995                5      460592           0
</event>
<event>
      5   9999  3.79277E-02  2.88423E+01 -1.00000E+00  1.54237E-01
      21    -1     0     0   502   501  0.000000000E+00  0.000000000E+00  1.960038030E+02  1.960038030E+02  0.000000000E+00  0.00000E+00  9.000E+00
      -1    -1     0     0     0   502  0.000000000E+00  0.000000000E+00 -1.424983498E+03  1.424983498E+03  0.000000000E+00  0.00000E+00  9.000E+00
      25     1     1     2     0     0 -1.431741324E+02  1.615439503E+02 -1.224778892E+01  2.497404421E+02  1.250000000E+02  0.00000E+00  9.000E+00
      25     1     1     2     0     0  1.578875485E+02 -1.367368373E+02 -1.151313068E+02  2.692687477E+02  1.250000000E+02  0.00000E+00  9.000E+00
      -1     1     1     2     0   501 -1.471341613E+01 -2.480711302E+01 -1.101600599E+03  1.101978111E+03  1.525878906E-05  0.00000E+00  9.000E+00
#rwgt            1           1   2.3394004501010701E-002           5      460640           0
</event>
<event>
      5   9999  3.79277E-02  1.93946E+02 -1.00000E+00  1.12136E-01
      21    -1     0     0   502   501  0.000000000E+00  0.000000000E+00  4.277580821E+02  4.277580821E+02  0.000000000E+00  0.00000E+00  9.000E+00
      -3    -1     0     0     0   502  0.000000000E+00  0.000000000E+00 -4.543862623E+02  4.543862623E+02  0.000000000E+00  0.00000E+00  9.000E+00
      25     1     1     2     0     0  1.147923401E+02 -1.541906997E+02  9.283181707E+01  2.473758264E+02  1.250000000E+02  0.00000E+00  9.000E+00
      25     1     1     2     0     0 -3.447018945E+01 -2.234044733E+01  2.127145770E+02  2.501195331E+02  1.250000000E+02  0.00000E+00  9.000E+00
      -3     1     1     2     0   501 -8.032215070E+01  1.765311470E+02 -3.321745743E+02  3.846489849E+02  5.394796609E-06  0.00000E+00  9.000E+00
#rwgt            1           1   4.7397934076275794E-002           5      460746           0
</event>
<event>
      5   9999  3.79277E-02  2.82369E+02 -1.00000E+00  1.06454E-01
      21    -1     0     0   511   501  0.000000000E+00  0.000000000E+00  1.693069211E+02  1.693069211E+02  0.000000000E+00  0.00000E+00  9.000E+00
      21    -1     0     0   501   502  0.000000000E+00  0.000000000E+00 -2.287656411E+03  2.287656411E+03  0.000000000E+00  0.00000E+00  9.000E+00
      25     1     1     2     0     0 -1.481263832E+02  5.368177095E+01 -7.295548483E+02  7.567684155E+02  1.250000000E+02  0.00000E+00  9.000E+00
      25     1     1     2     0     0  5.005938414E+01  2.111107255E+02 -1.395460087E+03  1.417747345E+03  1.250000000E+02  0.00000E+00  9.000E+00
      21     1     1     2   511   502  9.806699907E+01 -2.647924964E+02  6.665445439E+00  2.824475715E+02  4.512666042E-06  0.00000E+00  9.000E+00
#rwgt            1           1   3.1110696099915340E-002           5      460847           0
</event>
<event>
      5   9999  3.79277E-02  6.48448E+01 -1.00000E+00  1.32926E-01
      21    -1     0     0   502   501  0.000000000E+00  0.000000000E+00  2.234783486E+02  2.234783486E+02  0.000000000E+00  0.00000E+00  9.000E+00
      21    -1     0     0   512   502  0.000000000E+00  0.000000000E+00 -1.437334756E+03  1.437334756E+03  0.000000000E+00  0.00000E+00  9.000E+00
      25     1     1     2     0     0  9.879723534E+01 -1.326978270E+02 -6.318010322E+02  6.649565033E+02  1.250000000E+02  0.00000E+00  9.000E+00
      25     1     1     2     0     0 -3.462378456E+01  1.233909485E+02  1.665095192E+02  2.444883487E+02  1.250000000E+02  0.00000E+00  9.000E+00
      21     1     1     2   512   501 -6.417345078E+01  9.306878424E+00 -7.485648945E+02  7.513682526E+02  0.000000000E+00  0.00000E+00  9.000E+00
#rwgt            1           1   5.0316295921666698E-002           5      460955           0
</event>
<event>
      5   9999  3.79277E-02  9.76068E+01 -1.00000E+00  1.24303E-01
      21    -1     0     0   502   501  0.000000000E+00  0.000000000E+00  2.286648356E+03  2.286648356E+03  0.000000000E+00  0.00000E+00  9.000E+00
      21    -1     0     0   511   502  0.000000000E+00  0.000000000E+00 -3.879848951E+01  3.879848951E+01  0.000000000E+00  0.00000E+00  9.000E+00
      25     1     1     2     0     0 -1.007335134E+02 -1.192059269E+02  8.703095165E+02  8.929842934E+02  1.250000000E+02  0.00000E+00  9.000E+00
      25     1     1     2     0     0  1.892207296E+02  7.800996751E+01  1.244840618E+03  1.267731518E+03  1.250000000E+02  0.00000E+00  9.000E+00
      21     1     1     2   511   501 -8.848721616E+01  4.119595940E+01  1.326997325E+02  1.647310338E+02  2.697398305E-06  0.00000E+00  9.000E+00
#rwgt            1           1   9.0183085441823657E-002           5      461043           0
</event>
<event>
      5   9999  3.79277E-02  7.72993E+01 -1.00000E+00  1.29076E-01
      21    -1     0     0   502   501  0.000000000E+00  0.000000000E+00  1.272522874E+02  1.272522874E+02  0.000000000E+00  0.00000E+00  9.000E+00
      21    -1     0     0   512   502  0.000000000E+00  0.000000000E+00 -5.133078353E+02  5.133078353E+02  0.000000000E+00  0.00000E+00  9.000E+00
      25     1     1     2     0     0  1.175067513E+02 -5.394056549E+01  1.184695334E+01  1.802297742E+02  1.250000000E+02  0.00000E+00  9.000E+00
      25     1     1     2     0     0 -4.822126702E+01  1.966669165E+01 -3.327056280E+02  3.592076061E+02  1.250000000E+02  0.00000E+00  9.000E+00
      21     1     1     2   512   501 -6.928548432E+01  3.427387384E+01 -6.519687320E+01  1.011227424E+02  1.348699152E-06  0.00000E+00  9.000E+00
#rwgt            1           1   5.2738680315531618E-002           5      461136           0
</event>
<event>
      5   9999  3.79277E-02  2.08853E+01 -1.00000E+00  1.64832E-01
      21    -1     0     0   502   501  0.000000000E+00  0.000000000E+00  1.407522305E+02  1.407522305E+02  0.000000000E+00  0.00000E+00  9.000E+00
       2    -1     0     0   501     0  0.000000000E+00  0.000000000E+00 -2.521598837E+03  2.521598837E+03  0.000000000E+00  0.00000E+00  9.000E+00
      25     1     1     2     0     0  1.203894549E+02  4.782406475E+01  3.250779676E+00  1.800453543E+02  1.250000000E+02  0.00000E+00  9.000E+00
      25     1     1     2     0     0 -1.162556456E+02 -2.735196874E+01 -1.032608445E+02  2.013735517E+02  1.250000000E+02  0.00000E+00  9.000E+00
       2     1     1     2   502     0 -4.133809348E+00 -2.047209600E+01 -2.280836542E+03  2.280932161E+03  3.051757812E-05  0.00000E+00  9.000E+00
#rwgt            1           1   2.9139142015934476E-002           5      461201           0
</event>
<event>
      5   9999  3.79277E-02  5.16208E+01 -1.00000E+00  1.38290E-01
      21    -1     0     0   502   501  0.000000000E+00  0.000000000E+00  9.619349483E+01  9.619349483E+01  0.000000000E+00  0.00000E+00  9.000E+00
      21    -1     0     0   511   502  0.000000000E+00  0.000000000E+00 -1.047454994E+03  1.047454994E+03  0.000000000E+00  0.00000E+00  9.000E+00
      25     1     1     2     0     0 -1.674348998E+01  6.852077483E+01 -5.818940654E+00  1.436464448E+02  1.250000000E+02  0.00000E+00  9.000E+00
      25     1     1     2     0     0  5.329226570E+01 -3.206679623E+01 -1.579187639E+02  2.107882373E+02  1.250000000E+02  0.00000E+00  9.000E+00
      21     1     1     2   511   501 -3.654877572E+01 -3.645397860E+01 -7.875237945E+02  7.892138066E+02  1.078959322E-05  0.00000E+00  9.000E+00
#rwgt            1           1   4.2598721349792722E-002           5      461352           0
</event>
<event>
      5   9999  3.79277E-02  1.04251E+01 -1.00000E+00  1.93690E-01
      21    -1     0     0   502   501  0.000000000E+00  0.000000000E+00  6.929112008E+01  6.929112008E+01  0.000000000E+00  0.00000E+00  9.000E+00
      21    -1     0     0   512   502  0.000000000E+00  0.000000000E+00 -8.025644652E+02  8.025644652E+02  0.000000000E+00  0.00000E+00  9.000E+00
      25     1     1     2     0     0  3.883204472E+01  1.360970742E+02 -5.652659995E+02  5.959706297E+02  1.250000000E+02  0.00000E+00  9.000E+00
      25     1     1     2     0     0 -3.022925476E+01 -1.419856029E+02 -1.184241971E+02  2.252176941E+02  1.250000000E+02  0.00000E+00  9.000E+00
      21     1     1     2   512   501 -8.602789963E+00  5.888528710E+00 -4.958314855E+01  5.066726147E+01  9.536743164E-07  0.00000E+00  9.000E+00
#rwgt            1           1   2.3855878779659934E-002           5      461427           0
</event>
<event>
      5   9999  3.79277E-02  1.36894E+01 -1.00000E+00  1.81208E-01
      21    -1     0     0   502   501  0.000000000E+00  0.000000000E+00  1.225157048E+03  1.225157048E+03  0.000000000E+00  0.00000E+00  9.000E+00
      21    -1     0     0   511   502  0.000000000E+00  0.000000000E+00 -3.026687096E+01  3.026687096E+01  0.000000000E+00  0.00000E+00  9.000E+00
      25     1     1     2     0     0 -2.138414945E+01  5.096885142E+01  1.934781134E+02  2.368836973E+02  1.250000000E+02  0.00000E+00  9.000E+00
      25     1     1     2     0     0  3.498914831E+01 -5.248628489E+01  9.922220031E+02  1.002052171E+03  1.250000000E+02  0.00000E+00  9.000E+00
      21     1     1     2   511   501 -1.360499886E+01  1.517433463E+00  9.190060916E+00  1.648805076E+01  0.000000000E+00  0.00000E+00  9.000E+00
#rwgt            1           1   3.9861802368086667E-002           5      461715           0
</event>
<event>
      5   9999  3.79277E-02  1.11632E+02 -1.00000E+00  1.21716E-01
       2    -1     0     0   502     0  0.000000000E+00  0.000000000E+00  2.443166518E+03  2.443166518E+03  0.000000000E+00  0.00000E+00  9.000E+00
      21    -1     0     0   501   502  0.000000000E+00  0.000000000E+00 -6.029777725E+01  6.029777725E+01  0.000000000E+00  0.00000E+00  9.000E+00
      25     1     1     2     0     0 -1.620160876E+02 -1.100819087E+02  2.984140082E+02  3.782104699E+02  1.250000000E+02  0.00000E+00  9.000E+00
      25     1     1     2     0     0  1.632708067E+02  2.217072795E+02  1.479355378E+03  1.509943313E+03  1.250000000E+02  0.00000E+00  9.000E+00
       2     1     1     2   501     0 -1.254719102E+00 -1.116253708E+02  6.050993542E+02  6.153105120E+02  7.629394531E-06  0.00000E+00  9.000E+00
#rwgt            1           1   4.7991375726478790E-002           5      462062           0
</event>
<event>
      5   9999  3.79277E-02  9.51396E+00 -1.00000E+00  1.98292E-01
      21    -1     0     0   511   501  0.000000000E+00  0.000000000E+00  7.058190209E+01  7.058190209E+01  0.000000000E+00  0.00000E+00  9.000E+00
      21    -1     0     0   501   502  0.000000000E+00  0.000000000E+00 -1.663660117E+03  1.663660117E+03  0.000000000E+00  0.00000E+00  9.000E+00
      25     1     1     2     0     0 -2.647941621E+01  1.126483347E+02 -1.521710255E+03  1.531214520E+03  1.250000000E+02  0.00000E+00  9.000E+00
      25     1     1     2     0     0  3.369728590E+01 -1.188465500E+02 -7.711120421E+01  1.919144271E+02  1.250000000E+02  0.00000E+00  9.000E+00
      21     1     1     2   511   502 -7.217869691E+00  6.198215246E+00  5.743244107E+00  1.111307194E+01  3.475518164E-07  0.00000E+00  9.000E+00
#rwgt            1           1   4.0409990122836123E-002           5      462130           0
</event>
<event>
      5   9999  3.79277E-02  3.60915E+01 -1.00000E+00  1.47665E-01
      21    -1     0     0   502   501  0.000000000E+00  0.000000000E+00  6.853515011E+02  6.853515011E+02  0.000000000E+00  0.00000E+00  9.000E+00
      21    -1     0     0   501   512  0.000000000E+00  0.000000000E+00 -1.094777414E+02  1.094777414E+02  0.000000000E+00  0.00000E+00  9.000E+00
      25     1     1     2     0     0 -8.356241813E+01  1.745911376E+02  3.921720214E+02  4.548501263E+02  1.250000000E+02  0.00000E+00  9.000E+00
      25     1     1     2     0     0  1.068199057E+02 -1.469924765E+02  2.023872921E+02  2.993374290E+02  1.250000000E+02  0.00000E+00  9.000E+00
      21     1     1     2   502   512 -2.325748754E+01 -2.759866107E+01 -1.868555376E+01  4.064168721E+01  7.152557373E-07  0.00000E+00  9.000E+00
#rwgt            1           1  0.15038980141693431                5      462615           0
</event>
<event>
      5   9999  3.79277E-02  3.30446E+01 -1.00000E+00  1.50180E-01
      21    -1     0     0   502   501  0.000000000E+00  0.000000000E+00  3.707804710E+02  3.707804710E+02  0.000000000E+00  0.00000E+00  9.000E+00
      21    -1     0     0   501   511  0.000000000E+00  0.000000000E+00 -9.897490420E+01  9.897490420E+01  0.000000000E+00  0.00000E+00  9.000E+00
      25     1     1     2     0     0 -7.403674756E+00  1.061539918E+01  2.768958571E+02  3.040786359E+02  1.250000000E+02  0.00000E+00  9.000E+00
      25     1     1     2     0     0 -1.141454154E+01  1.654742642E+01 -2.208528190E+01  1.285179706E+02  1.250000000E+02  0.00000E+00  9.000E+00
      21     1     1     2   502   511  1.881821630E+01 -2.716282560E+01  1.699499161E+01  3.715876880E+01  7.539457465E-07  0.00000E+00  9.000E+00
#rwgt            1           1   5.1767975968720445E-002           5      462905           0
</event>
<event>
      5   9999  3.79277E-02  2.63139E+01 -1.00000E+00  1.57103E-01
      21    -1     0     0   512   501  0.000000000E+00  0.000000000E+00  6.386698708E+01  6.386698708E+01  0.000000000E+00  0.00000E+00  9.000E+00
      21    -1     0     0   501   502  0.000000000E+00  0.000000000E+00 -1.260057530E+03  1.260057530E+03  0.000000000E+00  0.00000E+00  9.000E+00
      25     1     1     2     0     0 -2.360635866E+01 -1.085479076E+02 -1.076649089E+03  1.089558703E+03  1.250000000E+02  0.00000E+00  9.000E+00
      25     1     1     2     0     0  1.411628412E+00  1.226835126E+02 -1.066095656E+02  2.050459374E+02  1.250000000E+02  0.00000E+00  9.000E+00
      21     1     1     2   512   502  2.219473025E+01 -1.413560505E+01 -1.293188835E+01  2.931987581E+01  2.920019320E-07  0.00000E+00  9.000E+00
#rwgt            1           1   3.8048862505817668E-002           5      463003           0
</event>
<event>
      5   9999  3.79277E-02  4.16172E+01 -1.00000E+00  1.43781E-01
      21    -1     0     0   502   501  0.000000000E+00  0.000000000E+00  9.023429426E+02  9.023429426E+02  0.000000000E+00  0.00000E+00  9.000E+00
      21    -1     0     0   501   511  0.000000000E+00  0.000000000E+00 -4.758489533E+02  4.758489533E+02  0.000000000E+00  0.00000E+00  9.000E+00
      25     1     1     2     0     0 -3.184158499E+01 -6.078474504E+01  7.690504561E+02  7.821587280E+02  1.250000000E+02  0.00000E+00  9.000E+00
      25     1     1     2     0     0  3.299124201E+01  1.023860970E+02  7.160378351E+01  1.797871985E+02  1.250000000E+02  0.00000E+00  9.000E+00
      21     1     1     2   502   511 -1.149657019E+00 -4.160135200E+01 -4.141602503E+02  4.162459695E+02  5.394796609E-06  0.00000E+00  9.000E+00
#rwgt            1           1   2.5763465464733990E-002           5      463195           0
</event>
<event>
      5   9999  3.79277E-02  1.64136E+01 -1.00000E+00  1.73777E-01
      21    -1     0     0   502   501  0.000000000E+00  0.000000000E+00  1.068956358E+03  1.068956358E+03  0.000000000E+00  0.00000E+00  9.000E+00
      21    -1     0     0   501   512  0.000000000E+00  0.000000000E+00 -1.452196763E+02  1.452196763E+02  0.000000000E+00  0.00000E+00  9.000E+00
      25     1     1     2     0     0 -9.313833351E+01  5.673059697E+01  9.938595726E+02  1.007608535E+03  1.250000000E+02  0.00000E+00  9.000E+00
      25     1     1     2     0     0  9.116107595E+01 -7.302463762E+01 -4.558801474E+01  1.770485994E+02  1.250000000E+02  0.00000E+00  9.000E+00
      21     1     1     2   502   512  1.977257564E+00  1.629404065E+01 -2.453487612E+01  2.951889995E+01  5.840038640E-07  0.00000E+00  9.000E+00
#rwgt            2          11   1.0220156845762486E-003           5      463314           0
</event>
<event>
      5   9999  3.79277E-02  1.80295E+02 -1.00000E+00  1.13313E-01
      21    -1     0     0   502   501  0.000000000E+00  0.000000000E+00  8.516120375E+02  8.516120375E+02  0.000000000E+00  0.00000E+00  9.000E+00
       2    -1     0     0   501     0  0.000000000E+00  0.000000000E+00 -1.053473854E+03  1.053473854E+03  0.000000000E+00  0.00000E+00  9.000E+00
      25     1     1     2     0     0  4.160422319E+01  1.914008453E+02  2.468654846E+01  2.336656171E+02  1.250000000E+02  0.00000E+00  9.000E+00
      25     1     1     2     0     0 -2.218964149E+02 -1.903194435E+02  6.781239600E+02  7.489570179E+02  1.250000000E+02  0.00000E+00  9.000E+00
       2     1     1     2   502     0  1.802921917E+02 -1.081401796E+00 -9.046723254E+02  9.224632568E+02  1.078959322E-05  0.00000E+00  9.000E+00
#rwgt            1           1   3.3978091947175361E-002           5      463364           0
</event>
<event>
      5   9999  3.79277E-02  9.63460E+01 -1.00000E+00  1.24559E-01
       1    -1     0     0   502     0  0.000000000E+00  0.000000000E+00  2.686614616E+03  2.686614616E+03  0.000000000E+00  0.00000E+00  9.000E+00
      21    -1     0     0   501   502  0.000000000E+00  0.000000000E+00 -1.846687553E+02  1.846687553E+02  0.000000000E+00  0.00000E+00  9.000E+00
      25     1     1     2     0     0  3.879253397E+01 -1.732604731E+02 -1.033607986E+02  2.404839016E+02  1.250000000E+02  0.00000E+00  9.000E+00
      25     1     1     2     0     0  5.639618066E+01  1.583723890E+02  9.561566738E+02  9.788375390E+02  1.250000000E+02  0.00000E+00  9.000E+00
       1     1     1     2   501     0 -9.518871464E+01  1.488808406E+01  1.649149985E+03  1.651961931E+03  2.157918644E-05  0.00000E+00  9.000E+00
#rwgt            1           1   3.5843880269753783E-002           5      463448           0
</event>
<event>
      5   9999  3.79277E-02  6.44125E+01 -1.00000E+00  1.33077E-01
      21    -1     0     0   502   501  0.000000000E+00  0.000000000E+00  4.298382911E+02  4.298382911E+02  0.000000000E+00  0.00000E+00  9.000E+00
      21    -1     0     0   511   502  0.000000000E+00  0.000000000E+00 -2.021251107E+02  2.021251107E+02  0.000000000E+00  0.00000E+00  9.000E+00
      25     1     1     2     0     0 -3.253207694E+01 -7.523244032E+01  3.226528444E+02  3.555954360E+02  1.250000000E+02  0.00000E+00  9.000E+00
      25     1     1     2     0     0  8.895230624E+01  1.063086629E+02 -1.000084449E+02  2.117563072E+02  1.250000000E+02  0.00000E+00  9.000E+00
      21     1     1     2   511   501 -5.642022930E+01 -3.107622261E+01  5.068780936E+00  6.461165859E+01  7.817075878E-07  0.00000E+00  9.000E+00
#rwgt            1           1   3.3016029348270297E-002           5      463630           0
</event>
<event>
      5   9999  3.79277E-02  1.26346E+02 -1.00000E+00  1.19426E-01
      21    -1     0     0   502   501  0.000000000E+00  0.000000000E+00  4.435951492E+02  4.435951492E+02  0.000000000E+00  0.00000E+00  9.000E+00
       2    -1     0     0   501     0  0.000000000E+00  0.000000000E+00 -1.811486157E+03  1.811486157E+03  0.000000000E+00  0.00000E+00  9.000E+00
      25     1     1     2     0     0 -9.297632058E+01 -1.802410065E+02  1.622019400E+02  2.882115299E+02  1.250000000E+02  0.00000E+00  9.000E+00
      25     1     1     2     0     0 -2.890386163E+01  2.135371733E+02  1.441838523E+02  2.878324875E+02  1.250000000E+02  0.00000E+00  9.000E+00
       2     1     1     2   502     0  1.218801822E+02 -3.329616674E+01 -1.674276800E+03  1.679037289E+03  0.000000000E+00  0.00000E+00  9.000E+00
#rwgt            1           1   3.3071536193383350E-002           5      463786           0
</event>
<event>
      5   9999  3.79277E-02  3.27356E+01 -1.00000E+00  1.50453E-01
      21    -1     0     0   502   501  0.000000000E+00  0.000000000E+00  1.231104622E+02  1.231104622E+02  0.000000000E+00  0.00000E+00  9.000E+00
      21    -1     0     0   511   502  0.000000000E+00  0.000000000E+00 -1.183889457E+03  1.183889457E+03  0.000000000E+00  0.00000E+00  9.000E+00
      25     1     1     2     0     0  1.001643044E+01 -2.453283211E+02 -6.123411406E+02  6.714707637E+02  1.250000000E+02  0.00000E+00  9.000E+00
      25     1     1     2     0     0 -1.787788927E+01  2.135507390E+02 -7.291607367E+01  2.585832378E+02  1.250000000E+02  0.00000E+00  9.000E+00
      21     1     1     2   511   501  7.861458823E+00  3.177758207E+01 -3.755217808E+02  3.769459180E+02  0.000000000E+00  0.00000E+00  9.000E+00
#rwgt            1           1   4.6203451842178458E-002           5      463852           0
</event>
<event>
      5   9999  3.79277E-02  7.08158E+01 -1.00000E+00  1.30966E-01
      21    -1     0     0   502   512  0.000000000E+00  0.000000000E+00  6.805166757E+02  6.805166757E+02  0.000000000E+00  0.00000E+00  9.000E+00
      21    -1     0     0   501   502  0.000000000E+00  0.000000000E+00 -9.270764987E+01  9.270764987E+01  0.000000000E+00  0.00000E+00  9.000E+00
      25     1     1     2     0     0  1.374138232E+02  1.018318867E+02  3.204606750E+02  3.841514495E+02  1.250000000E+02  0.00000E+00  9.000E+00
      25     1     1     2     0     0 -1.650726267E+02 -3.664086606E+01  1.814061916E+02  2.777133981E+02  1.250000000E+02  0.00000E+00  9.000E+00
      21     1     1     2   501   512  2.765880352E+01 -6.519102068E+01  8.594215919E+01  1.113594779E+02  9.536743164E-07  0.00000E+00  9.000E+00
#rwgt            1           1   3.5739790593714064E-002           5      464590           0
</event>
<event>
      5   9999  3.79277E-02  2.18770E+01 -1.00000E+00  1.63218E-01
      21    -1     0     0   511   501  0.000000000E+00  0.000000000E+00  9.013022290E+02  9.013022290E+02  0.000000000E+00  0.00000E+00  9.000E+00
      21    -1     0     0   501   502  0.000000000E+00  0.000000000E+00 -9.275412188E+01  9.275412188E+01  0.000000000E+00  0.00000E+00  9.000E+00
      25     1     1     2     0     0  1.485256121E+02 -4.687212314E+01  2.701641691E+02  3.359620985E+02  1.250000000E+02  0.00000E+00  9.000E+00
      25     1     1     2     0     0 -1.393246392E+02  2.702401546E+01  9.046946183E+01  2.096458347E+02  1.250000000E+02  0.00000E+00  9.000E+00
      21     1     1     2   511   502 -9.200972940E+00  1.984810768E+01  4.479144762E+02  4.484484177E+02  0.000000000E+00  0.00000E+00  9.000E+00
#rwgt            1           1  0.10776018341785404                5      464748           0
</event>
<event>
      5   9999  3.79277E-02  6.34252E+01 -1.00000E+00  1.33428E-01
      21    -1     0     0   512   501  0.000000000E+00  0.000000000E+00  2.438047713E+02  2.438047713E+02  0.000000000E+00  0.00000E+00  9.000E+00
      21    -1     0     0   501   502  0.000000000E+00  0.000000000E+00 -4.847173910E+02  4.847173910E+02  0.000000000E+00  0.00000E+00  9.000E+00
      25     1     1     2     0     0  1.353609868E+02  7.662037394E+01 -1.005884654E+02  2.234643547E+02  1.250000000E+02  0.00000E+00  9.000E+00
      25     1     1     2     0     0 -7.918527004E+01 -1.060659380E+02 -2.900493571E+02  3.424527993E+02  1.250000000E+02  0.00000E+00  9.000E+00
      21     1     1     2   512   502 -5.617571680E+01  2.944556407E+01  1.497252027E+02  1.626050083E+02  3.303624740E-06  0.00000E+00  9.000E+00
#rwgt            1           1   4.9997385312743246E-002           5      464894           0
</event>
<event>
      5   9999 -3.79277E-02  6.10132E+01 -1.00000E+00  1.34316E-01
      21    -1     0     0   502   501  0.000000000E+00  0.000000000E+00  1.570912162E+02  1.570912162E+02  0.000000000E+00  0.00000E+00  9.000E+00
      21    -1     0     0   511   502  0.000000000E+00  0.000000000E+00 -5.470553218E+02  5.470553218E+02  0.000000000E+00  0.00000E+00  9.000E+00
      25     1     1     2     0     0 -1.070154666E+02  4.119228288E+01  2.463322978E+01  1.714086062E+02  1.250000000E+02  0.00000E+00  9.000E+00
      25     1     1     2     0     0  1.544506974E+02 -2.819068912E+00 -1.205396775E+02  2.324172518E+02  1.250000000E+02  0.00000E+00  9.000E+00
      21     1     1     2   511   501 -4.743523081E+01 -3.837321397E+01 -2.940576579E+02  3.003206800E+02  3.814697266E-06  0.00000E+00  9.000E+00
#rwgt            1           1 -0.10420834650634449                5      465081           0
</event>
<event>
      5   9999  3.79277E-02  3.00859E+01 -1.00000E+00  1.52954E-01
      21    -1     0     0   512   501  0.000000000E+00  0.000000000E+00  9.092289742E+01  9.092289742E+01  0.000000000E+00  0.00000E+00  9.000E+00
      21    -1     0     0   501   502  0.000000000E+00  0.000000000E+00 -6.093934163E+02  6.093934163E+02  0.000000000E+00  0.00000E+00  9.000E+00
      25     1     1     2     0     0 -3.017634023E+01 -4.293172376E+01 -5.120596371E+02  5.297016296E+02  1.250000000E+02  0.00000E+00  9.000E+00
      25     1     1     2     0     0  5.322078703E+01  2.358961058E+01  6.112424982E+00  1.380263875E+02  1.250000000E+02  0.00000E+00  9.000E+00
      21     1     1     2   512   502 -2.304444679E+01  1.934211319E+01 -1.252330681E+01  3.258829673E+01  0.000000000E+00  0.00000E+00  9.000E+00
#rwgt            1           1   4.6031985473404924E-002           5      465372           0
</event>
<event>
      5   9999  3.79277E-02  5.30983E+01 -1.00000E+00  1.37602E-01
      21    -1     0     0   511   501  0.000000000E+00  0.000000000E+00  1.369353195E+02  1.369353195E+02  0.000000000E+00  0.00000E+00  9.000E+00
      21    -1     0     0   501   502  0.000000000E+00  0.000000000E+00 -5.660023353E+02  5.660023353E+02  0.000000000E+00  0.00000E+00  9.000E+00
      25     1     1     2     0     0 -1.271987633E+02 -1.194537242E+02 -2.684336810E+01  2.163198651E+02  1.250000000E+02  0.00000E+00  9.000E+00
      25     1     1     2     0     0  1.231147122E+02  6.651274041E+01 -3.890147804E+02  4.319012346E+02  1.250000000E+02  0.00000E+00  9.000E+00
      21     1     1     2   511   502  4.084051108E+00  5.294098379E+01 -1.320886718E+01  5.471655518E+01  1.261592536E-06  0.00000E+00  9.000E+00
#rwgt            1           1  0.14969200037437286                5      465580           0
</event>
<event>
      5   9999 -3.79277E-02  2.69601E+01 -1.00000E+00  1.56334E-01
      21    -1     0     0   502   501  0.000000000E+00  0.000000000E+00  1.803409662E+03  1.803409662E+03  0.000000000E+00  0.00000E+00  9.000E+00
      21    -1     0     0   501   512  0.000000000E+00  0.000000000E+00 -4.308676512E+01  4.308676512E+01  0.000000000E+00  0.00000E+00  9.000E+00
      25     1     1     2     0     0 -1.944660972E+01  1.170429192E+02  5.807715780E+02  6.058034676E+02  1.250000000E+02  0.00000E+00  9.000E+00
      25     1     1     2     0     0  3.265982041E+00 -9.547820880E+01  1.197831835E+03  1.208119555E+03  1.250000000E+02  0.00000E+00  9.000E+00
      21     1     1     2   502   512  1.618062768E+01 -2.156471043E+01 -1.828051556E+01  3.257340475E+01  2.064765462E-06  0.00000E+00  9.000E+00
#rwgt            1           1 -0.19733003928283319                5      465688           0
</event>
<event>
      5   9999  3.79277E-02  1.18380E+02 -1.00000E+00  1.20619E-01
      21    -1     0     0   502   511  0.000000000E+00  0.000000000E+00  9.648848976E+02  9.648848976E+02  0.000000000E+00  0.00000E+00  9.000E+00
      21    -1     0     0   501   502  0.000000000E+00  0.000000000E+00 -1.551945947E+02  1.551945947E+02  0.000000000E+00  0.00000E+00  9.000E+00
      25     1     1     2     0     0  3.781700611E+01 -5.154223905E+00 -8.970693746E+01  1.585213759E+02  1.250000000E+02  0.00000E+00  9.000E+00
      25     1     1     2     0     0 -1.165393388E+02 -8.325693415E+01  7.336393206E+02  7.578685818E+02  1.250000000E+02  0.00000E+00  9.000E+00
      21     1     1     2   501   511  7.872233269E+01  8.841115805E+01  1.657579198E+02  2.036895346E+02  1.907348633E-06  0.00000E+00  9.000E+00
#rwgt            2          11   3.4638206299488364E-003           5      465919           0
</event>
<event>
      5   9999  3.79277E-02  9.49439E+01 -1.00000E+00  1.24850E-01
      21    -1     0     0   502   501  0.000000000E+00  0.000000000E+00  2.275323682E+02  2.275323682E+02  0.000000000E+00  0.00000E+00  9.000E+00
      21    -1     0     0   501   512  0.000000000E+00  0.000000000E+00 -4.770030710E+02  4.770030710E+02  0.000000000E+00  0.00000E+00  9.000E+00
      25     1     1     2     0     0  1.124969980E+02 -1.269920236E+02  1.319498268E+02  2.486328728E+02  1.250000000E+02  0.00000E+00  9.000E+00
      25     1     1     2     0     0 -3.477651739E+01  7.245888625E+01 -1.814667604E+02  2.345525133E+02  1.250000000E+02  0.00000E+00  9.000E+00
      21     1     1     2   502   512 -7.772048061E+01  5.453313737E+01 -1.999537693E+02  2.213500532E+02  2.697398305E-06  0.00000E+00  9.000E+00
#rwgt            1           1   2.9259851028810804E-002           5      466059           0
</event>
<event>
      5   9999  3.79277E-02  7.81452E+01 -1.00000E+00  1.28845E-01
       2    -1     0     0   502     0  0.000000000E+00  0.000000000E+00  5.055217533E+02  5.055217533E+02  0.000000000E+00  0.00000E+00  9.000E+00
      21    -1     0     0   501   502  0.000000000E+00  0.000000000E+00 -2.839477895E+02  2.839477895E+02  0.000000000E+00  0.00000E+00  9.000E+00
      25     1     1     2     0     0  5.708871423E+01 -2.029241797E+02 -9.724574714E+01  2.636647101E+02  1.250000000E+02  0.00000E+00  9.000E+00
      25     1     1     2     0     0  9.633867589E+00  1.622453616E+02  7.875187419E+00  2.051910995E+02  1.250000000E+02  0.00000E+00  9.000E+00
       2     1     1     2   501     0 -6.672258182E+01  4.067881814E+01  3.109445235E+02  3.206137332E+02  5.394796609E-06  0.00000E+00  9.000E+00
#rwgt            1           1   2.2601994575455187E-002           5      466146           0
</event>
<event>
      5   9999  3.79277E-02  7.11161E+01 -1.00000E+00  1.30874E-01
      21    -1     0     0   502   501  0.000000000E+00  0.000000000E+00  6.815219215E+01  6.815219215E+01  0.000000000E+00  0.00000E+00  9.000E+00
       2    -1     0     0   501     0  0.000000000E+00  0.000000000E+00 -1.349445924E+03  1.349445924E+03  0.000000000E+00  0.00000E+00  9.000E+00
      25     1     1     2     0     0  1.456094154E+02 -5.952940347E+01 -8.493728204E+02  8.728144360E+02  1.250000000E+02  0.00000E+00  9.000E+00
      25     1     1     2     0     0 -1.095273957E+02 -1.753484586E+00 -7.765806371E+01  1.834532637E+02  1.250000000E+02  0.00000E+00  9.000E+00
       2     1     1     2   502     0 -3.608201977E+01  6.128288805E+01 -3.542628481E+02  3.613304168E+02  5.394796609E-06  0.00000E+00  9.000E+00
#rwgt            1           1   4.2648027378892929E-002           5      466264           0
</event>
<event>
      5   9999  3.79277E-02  9.47354E+01 -1.00000E+00  1.24894E-01
      21    -1     0     0   502   501  0.000000000E+00  0.000000000E+00  1.744613368E+02  1.744613368E+02  0.000000000E+00  0.00000E+00  9.000E+00
      21    -1     0     0   501   511  0.000000000E+00  0.000000000E+00 -8.056921993E+02  8.056921993E+02  0.000000000E+00  0.00000E+00  9.000E+00
      25     1     1     2     0     0 -1.895752073E+02  1.703751259E+02 -5.173005677E+02  5.900773848E+02  1.250000000E+02  0.00000E+00  9.000E+00
      25     1     1     2     0     0  9.970186340E+01 -2.003348382E+02 -2.068969231E+01  2.571528190E+02  1.250000000E+02  0.00000E+00  9.000E+00
      21     1     1     2   502   511  8.987334388E+01  2.995971230E+01 -9.324060251E+01  1.329233323E+02  1.348699152E-06  0.00000E+00  9.000E+00
#rwgt            1           1   4.5507639866215269E-002           5      466432           0
</event>
<event>
      5   9999  3.79277E-02  3.25960E+01 -1.00000E+00  1.50578E-01
      21    -1     0     0   502   501  0.000000000E+00  0.000000000E+00  3.808729288E+02  3.808729288E+02  0.000000000E+00  0.00000E+00  9.000E+00
      21    -1     0     0   512   502  0.000000000E+00  0.000000000E+00 -1.965509749E+02  1.965509749E+02  0.000000000E+00  0.00000E+00  9.000E+00
      25     1     1     2     0     0 -9.552410546E+01 -6.816759283E+01 -9.978060711E+01  1.983755151E+02  1.250000000E+02  0.00000E+00  9.000E+00
      25     1     1     2     0     0  6.293782616E+01  6.737280171E+01  3.036291586E+02  3.410512137E+02  1.250000000E+02  0.00000E+00  9.000E+00
      21     1     1     2   512   501  3.258627930E+01  7.947911143E-01 -1.952659765E+01  3.799717499E+01  7.539457465E-07  0.00000E+00  9.000E+00
#rwgt            1           1   4.4008384544353019E-002           5      466560           0
</event>
<event>
      5   9999  3.79277E-02  1.45220E+01 -1.00000E+00  1.78719E-01
      21    -1     0     0   502   511  0.000000000E+00  0.000000000E+00  2.231102180E+03  2.231102180E+03  0.000000000E+00  0.00000E+00  9.000E+00
      21    -1     0     0   501   502  0.000000000E+00  0.000000000E+00 -3.025006603E+01  3.025006603E+01  0.000000000E+00  0.00000E+00  9.000E+00
      25     1     1     2     0     0 -1.497932076E+02  9.287671084E+01  1.392287555E+03  1.408954834E+03  1.250000000E+02  0.00000E+00  9.000E+00
      25     1     1     2     0     0  1.370610482E+02 -9.986111611E+01  4.883535883E+02  5.318573123E+02  1.250000000E+02  0.00000E+00  9.000E+00
      21     1     1     2   501   511  1.273215934E+01  6.984405273E+00  3.202109704E+02  3.205400995E+02  5.394796609E-06  0.00000E+00  9.000E+00
#rwgt            1           1  0.10784092522684292                5      466737           0
</event>
<event>
      5   9999  3.79277E-02  2.86120E+01 -1.00000E+00  1.54483E-01
      21    -1     0     0   502   501  0.000000000E+00  0.000000000E+00  1.962013131E+01  1.962013131E+01  0.000000000E+00  0.00000E+00  9.000E+00
       2    -1     0     0   501     0  0.000000000E+00  0.000000000E+00 -4.122537435E+03  4.122537435E+03  0.000000000E+00  0.00000E+00  9.000E+00
      25     1     1     2     0     0 -8.676101947E+01  1.655832018E+02 -9.225523712E+02  9.495647154E+02  1.250000000E+02  0.00000E+00  9.000E+00
      25     1     1     2     0     0  1.004170005E+02 -1.404404106E+02 -1.901700156E+03  1.913607997E+03  1.250000000E+02  0.00000E+00  9.000E+00
       2     1     1     2   502     0 -1.365598100E+01 -2.514279119E+01 -1.278664777E+03  1.278984854E+03  0.000000000E+00  0.00000E+00  9.000E+00
#rwgt            1           1   7.6095951467924236E-002           5      467020           0
</event>
<event>
      5   9999  3.79277E-02  4.53224E+01 -1.00000E+00  1.41554E-01
      21    -1     0     0   502   501  0.000000000E+00  0.000000000E+00  2.055384705E+03  2.055384705E+03  0.000000000E+00  0.00000E+00  9.000E+00
       2    -1     0     0   501     0  0.000000000E+00  0.000000000E+00 -1.952624715E+03  1.952624715E+03  0.000000000E+00  0.00000E+00  9.000E+00
      25     1     1     2     0     0 -7.140151295E+01 -2.149442140E+02  5.854679295E+02  6.400756890E+02  1.250000000E+02  0.00000E+00  9.000E+00
      25     1     1     2     0     0  2.880071237E+01  1.994751728E+02  1.432595962E+03  1.452093667E+03  1.250000000E+02  0.00000E+00  9.000E+00
       2     1     1     2   502     0  4.260080057E+01  1.546904126E+01 -1.915303901E+03  1.915840065E+03  3.051757812E-05  0.00000E+00  9.000E+00
#rwgt            1           1   8.6191533532202963E-002           5      467202           0
</event>
<event>
      5   9999  3.79277E-02  1.20361E+01 -1.00000E+00  1.86891E-01
      21    -1     0     0   502   511  0.000000000E+00  0.000000000E+00  8.228937811E+02  8.228937811E+02  0.000000000E+00  0.00000E+00  9.000E+00
      21    -1     0     0   501   502  0.000000000E+00  0.000000000E+00 -7.204946280E+01  7.204946280E+01  0.000000000E+00  0.00000E+00  9.000E+00
      25     1     1     2     0     0  1.970929913E+02 -4.851971710E+00  2.536767810E+02  3.447406244E+02  1.250000000E+02  0.00000E+00  9.000E+00
      25     1     1     2     0     0 -1.852897625E+02  7.208337107E+00  4.733621934E+02  5.235274801E+02  1.250000000E+02  0.00000E+00  9.000E+00
      21     1     1     2   501   511 -1.180322881E+01 -2.356365397E+00  2.380534385E+01  2.667513944E+01  4.768371582E-07  0.00000E+00  9.000E+00
#rwgt            1           1   3.8773941022527063E-002           5      467311           0
</event>
<event>
      5   9999  3.79277E-02  1.70739E+02 -1.00000E+00  1.14207E-01
      21    -1     0     0   502   501  0.000000000E+00  0.000000000E+00  1.013737395E+02  1.013737395E+02  0.000000000E+00  0.00000E+00  9.000E+00
       2    -1     0     0   501     0  0.000000000E+00  0.000000000E+00 -3.188842236E+03  3.188842236E+03  0.000000000E+00  0.00000E+00  9.000E+00
      25     1     1     2     0     0 -9.035148165E+01  3.250396393E+02 -3.829966996E+02  5.254765735E+02  1.250000000E+02  0.00000E+00  9.000E+00
      25     1     1     2     0     0 -7.941021894E+01 -3.432844634E+02 -1.396818376E+03  1.445986439E+03  1.250000000E+02  0.00000E+00  9.000E+00
       2     1     1     2   502     0  1.697617006E+02  1.824482406E+01 -1.307653421E+03  1.318752963E+03  0.000000000E+00  0.00000E+00  9.000E+00
#rwgt            1           1   3.9711785953105802E-002           5      467543           0
</event>
<event>
      5   9999 -3.79277E-02  4.94560E+01 -1.00000E+00  1.39347E-01
      21    -1     0     0   502   511  0.000000000E+00  0.000000000E+00  1.047069672E+02  1.047069672E+02  0.000000000E+00  0.00000E+00  9.000E+00
      21    -1     0     0   501   502  0.000000000E+00  0.000000000E+00 -4.128145883E+02  4.128145883E+02  0.000000000E+00  0.00000E+00  9.000E+00
      25     1     1     2     0     0  1.132609744E+02  2.209346398E+01 -2.043144557E+02  2.658675728E+02  1.250000000E+02  0.00000E+00  9.000E+00
      25     1     1     2     0     0 -7.165294284E+01 -4.882670288E+01 -1.259124183E+02  1.974769055E+02  1.250000000E+02  0.00000E+00  9.000E+00
      21     1     1     2   501   511 -4.160803158E+01  2.673323891E+01  2.211925280E+01  5.417707724E+01  4.768371582E-07  0.00000E+00  9.000E+00
#rwgt            1           1  -4.1099056557702143E-002           5      467665           0
</event>
<event>
      5   9999  3.79277E-02  6.85622E+01 -1.00000E+00  1.31679E-01
      21    -1     0     0   512   501  0.000000000E+00  0.000000000E+00  1.019961123E+02  1.019961123E+02  0.000000000E+00  0.00000E+00  9.000E+00
      21    -1     0     0   501   502  0.000000000E+00  0.000000000E+00 -7.102151898E+02  7.102151898E+02  0.000000000E+00  0.00000E+00  9.000E+00
      25     1     1     2     0     0 -1.084529508E+02  6.408733086E+01 -5.474989261E+02  5.755426158E+02  1.250000000E+02  0.00000E+00  9.000E+00
      25     1     1     2     0     0  4.168883347E+01 -7.968649170E+01 -6.676479876E+01  1.678405021E+02  1.250000000E+02  0.00000E+00  9.000E+00
      21     1     1     2   512   502  6.676411738E+01  1.559916084E+01  6.044647366E+00  6.882818427E+01  2.402000627E-06  0.00000E+00  9.000E+00
#rwgt            1           1   4.3182322068227280E-002           5      467719           0
</event>
<event>
      5   9999  3.79277E-02  3.50645E+01 -1.00000E+00  1.48479E-01
      21    -1     0     0   502   511  0.000000000E+00  0.000000000E+00  1.278432238E+02  1.278432238E+02  0.000000000E+00  0.00000E+00  9.000E+00
      21    -1     0     0   501   502  0.000000000E+00  0.000000000E+00 -7.200702273E+02  7.200702273E+02  0.000000000E+00  0.00000E+00  9.000E+00
      25     1     1     2     0     0  1.631253354E+01  1.167614763E+02 -5.883951718E+02  6.129708144E+02  1.250000000E+02  0.00000E+00  9.000E+00
      25     1     1     2     0     0 -4.372452969E+01 -9.489593831E+01 -5.583720853E+01  1.722204037E+02  1.250000000E+02  0.00000E+00  9.000E+00
      21     1     1     2   501   511  2.741199614E+01 -2.186553799E+01  5.200537682E+01  6.272223292E+01  1.651812370E-06  0.00000E+00  9.000E+00
#rwgt            1           1   4.8187492546444416E-002           5      467785           0
</event>
<event>
      5   9999  3.79277E-02  2.12484E+01 -1.00000E+00  1.64228E-01
       2    -1     0     0   502     0  0.000000000E+00  0.000000000E+00  2.226353872E+03  2.226353872E+03  0.000000000E+00  0.00000E+00  9.000E+00
      21    -1     0     0   501   502  0.000000000E+00  0.000000000E+00 -4.370861371E+02  4.370861371E+02  0.000000000E+00  0.00000E+00  9.000E+00
      25     1     1     2     0     0 -5.821972732E+01 -2.809162037E+02 -9.306454532E+01  3.264804125E+02  1.250000000E+02  0.00000E+00  9.000E+00
      25     1     1     2     0     0  7.623525614E+01  2.696495752E+02 -1.236879255E+02  3.308268589E+02  1.250000000E+02  0.00000E+00  9.000E+00
       2     1     1     2   501     0 -1.801552882E+01  1.126662852E+01  2.006020206E+03  2.006132738E+03  2.157918644E-05  0.00000E+00  9.000E+00
#rwgt            1           1   3.5684187495332836E-002           5      467913           0
</event>
<event>
      5   9999 -3.79277E-02  2.78218E+01 -1.00000E+00  1.55349E-01
      21    -1     0     0   502   511  0.000000000E+00  0.000000000E+00  3.073133689E+02  3.073133689E+02  0.000000000E+00  0.00000E+00  9.000E+00
      21    -1     0     0   501   502  0.000000000E+00  0.000000000E+00 -9.197590778E+02  9.197590778E+02  0.000000000E+00  0.00000E+00  9.000E+00
      25     1     1     2     0     0  8.626263243E+01  1.149676656E+02 -7.533905960E+02  7.770979321E+02  1.250000000E+02  0.00000E+00  9.000E+00
      25     1     1     2     0     0 -1.135876752E+02 -1.202018685E+02 -8.373531833E+01  2.235782920E+02  1.250000000E+02  0.00000E+00  9.000E+00
      21     1     1     2   501   511  2.732504274E+01  5.234202894E+00  2.246802054E+02  2.263962225E+02  4.672030912E-06  0.00000E+00  9.000E+00
#rwgt            1           1  -1.3318106553420934E-002           5      468097           0
</event>
<event>
      5   9999  3.79277E-02  1.01858E+01 -1.00000E+00  1.94837E-01
      21    -1     0     0   502   501  0.000000000E+00  0.000000000E+00  5.659484922E+02  5.659484922E+02  0.000000000E+00  0.00000E+00  9.000E+00
      21    -1     0     0   512   502  0.000000000E+00  0.000000000E+00 -3.096948405E+02  3.096948405E+02  0.000000000E+00  0.00000E+00  9.000E+00
      25     1     1     2     0     0 -3.020910782E+02 -1.459170540E+02  2.523754440E+02  4.380287330E+02  1.250000000E+02  0.00000E+00  9.000E+00
      25     1     1     2     0     0  2.933523615E+02  1.406838715E+02  8.264352686E+01  3.581934006E+02  1.250000000E+02  0.00000E+00  9.000E+00
      21     1     1     2   512   501  8.738716675E+00  5.233182552E+00 -7.876531918E+01  7.942119915E+01  2.336015456E-06  0.00000E+00  9.000E+00
#rwgt            1           1   4.4671840990888390E-002           5      468338           0
</event>
<event>
      5   9999  3.79277E-02  4.98305E+01 -1.00000E+00  1.39160E-01
      21    -1     0     0   502   501  0.000000000E+00  0.000000000E+00  2.693944815E+02  2.693944815E+02  0.000000000E+00  0.00000E+00  9.000E+00
      21    -1     0     0   501   511  0.000000000E+00  0.000000000E+00 -3.036826889E+02  3.036826889E+02  0.000000000E+00  0.00000E+00  9.000E+00
      25     1     1     2     0     0  5.306411309E+01 -2.220917197E+02 -1.833415262E+01  2.609629729E+02  1.250000000E+02  0.00000E+00  9.000E+00
      25     1     1     2     0     0 -5.658718594E+01  1.723859600E+02  5.340843149E+01  2.267079385E+02  1.250000000E+02  0.00000E+00  9.000E+00
      21     1     1     2   502   511  3.523072847E+00  4.970575974E+01 -6.936248620E+01  8.540625905E+01  1.348699152E-06  0.00000E+00  9.000E+00
#rwgt            1           1  0.20742344070125346                5      468611           0
</event>
<event>
      5   9999  3.79277E-02  1.14446E+02 -1.00000E+00  1.21248E-01
      21    -1     0     0   502   501  0.000000000E+00  0.000000000E+00  1.931946245E+03  1.931946245E+03  0.000000000E+00  0.00000E+00  9.000E+00
      21    -1     0     0   512   502  0.000000000E+00  0.000000000E+00 -1.137510001E+02  1.137510001E+02  0.000000000E+00  0.00000E+00  9.000E+00
      25     1     1     2     0     0  2.013338032E+02 -1.690212838E+01  1.432973453E+03  1.452535335E+03  1.250000000E+02  0.00000E+00  9.000E+00
      25     1     1     2     0     0 -1.150573309E+02 -5.829193854E+01  4.332812943E+02  4.690349875E+02  1.250000000E+02  0.00000E+00  9.000E+00
      21     1     1     2   512   501 -8.627647235E+01  7.519406691E+01 -4.805950172E+01  1.241269233E+02  2.431401974E-06  0.00000E+00  9.000E+00
#rwgt            1           1   5.5409927168770995E-002           5      468709           0
</event>
<event>
      5   9999  3.79277E-02  1.52198E+02 -1.00000E+00  1.16144E-01
      21    -1     0     0   502   501  0.000000000E+00  0.000000000E+00  7.651081372E+01  7.651081372E+01  0.000000000E+00  0.00000E+00  9.000E+00
      21    -1     0     0   501   511  0.000000000E+00  0.000000000E+00 -3.349711392E+03  3.349711392E+03  0.000000000E+00  0.00000E+00  9.000E+00
      25     1     1     2     0     0  4.927591371E+01  3.266699978E+01 -5.075192773E+01  1.472956439E+02  1.250000000E+02  0.00000E+00  9.000E+00
      25     1     1     2     0     0 -4.299522582E+01 -1.847349115E+02 -4.673899774E+02  5.196671704E+02  1.250000000E+02  0.00000E+00  9.000E+00
      21     1     1     2   502   511 -6.280687895E+00  1.520679117E+02 -2.755058673E+03  2.759259391E+03  0.000000000E+00  0.00000E+00  9.000E+00
#rwgt            1           1   4.4892860971064978E-002           5      468840           0
</event>
<event>
      5   9999  3.79277E-02  6.62814E+01 -1.00000E+00  1.32433E-01
      21    -1     0     0   502   501  0.000000000E+00  0.000000000E+00  3.107883859E+02  3.107883859E+02  0.000000000E+00  0.00000E+00  9.000E+00
      21    -1     0     0   501   512  0.000000000E+00  0.000000000E+00 -5.926473969E+02  5.926473969E+02  0.000000000E+00  0.00000E+00  9.000E+00
      25     1     1     2     0     0  9.727957553E+01 -1.532890545E+02  1.464358018E+02  2.646304859E+02  1.250000000E+02  0.00000E+00  9.000E+00
      25     1     1     2     0     0 -7.694326367E+01  2.163735665E+02 -6.487557352E+01  2.693912140E+02  1.250000000E+02  0.00000E+00  9.000E+00
      21     1     1     2   502   512 -2.033631186E+01 -6.308451203E+01 -3.634192392E+02  3.694140829E+02  0.000000000E+00  0.00000E+00  9.000E+00
#rwgt            1           1  0.12246786653413778                5      469084           0
</event>
<event>
      5   9999  3.79277E-02  4.79615E+01 -1.00000E+00  1.40115E-01
      21    -1     0     0   511   501  0.000000000E+00  0.000000000E+00  4.287343330E+02  4.287343330E+02  0.000000000E+00  0.00000E+00  9.000E+00
      21    -1     0     0   501   502  0.000000000E+00  0.000000000E+00 -1.211632356E+02  1.211632356E+02  0.000000000E+00  0.00000E+00  9.000E+00
      25     1     1     2     0     0  9.702728116E+01 -3.007050342E+01  1.545555993E+01  1.618097735E+02  1.250000000E+02  0.00000E+00  9.000E+00
      25     1     1     2     0     0 -1.430076234E+02  4.371286378E+01  1.765973136E+02  2.630087564E+02  1.250000000E+02  0.00000E+00  9.000E+00
      21     1     1     2   511   502  4.598034220E+01 -1.364236036E+01  1.155182239E+02  1.250790386E+02  0.000000000E+00  0.00000E+00  9.000E+00
#rwgt            1           1   3.7869026949270135E-002           5      469147           0
</event>
<event>
      5   9999  3.79277E-02  1.88715E+01 -1.00000E+00  1.68477E-01
      21    -1     0     0   502   501  0.000000000E+00  0.000000000E+00  1.250638911E+02  1.250638911E+02  0.000000000E+00  0.00000E+00  9.000E+00
      21    -1     0     0   512   502  0.000000000E+00  0.000000000E+00 -3.847519219E+02  3.847519219E+02  0.000000000E+00  0.00000E+00  9.000E+00
      25     1     1     2     0     0  1.637325647E+02 -4.462906435E+01 -9.675397029E+01  2.319190309E+02  1.250000000E+02  0.00000E+00  9.000E+00
      25     1     1     2     0     0 -1.620013453E+02  2.583714750E+01 -1.497170742E+02  2.548572078E+02  1.250000000E+02  0.00000E+00  9.000E+00
      21     1     1     2   512   501 -1.731219394E+00  1.879191685E+01 -1.321698620E+01  2.303957430E+01  2.384185791E-07  0.00000E+00  9.000E+00
#rwgt            1           1   3.8854907021334983E-002           5      469349           0
</event>
<event>
      5   9999  3.79277E-02  4.75377E+01 -1.00000E+00  1.40339E-01
      21    -1     0     0   502   511  0.000000000E+00  0.000000000E+00  1.735519356E+02  1.735519356E+02  0.000000000E+00  0.00000E+00  9.000E+00
      21    -1     0     0   501   502  0.000000000E+00  0.000000000E+00 -1.170519089E+03  1.170519089E+03  0.000000000E+00  0.00000E+00  9.000E+00
      25     1     1     2     0     0  6.028523277E+01  1.787927820E+02 -4.863112056E+02  5.363998107E+02  1.250000000E+02  0.00000E+00  9.000E+00
      25     1     1     2     0     0 -1.962230767E+01 -2.034171900E+02 -6.327867539E+02  6.766148566E+02  1.250000000E+02  0.00000E+00  9.000E+00
      21     1     1     2   501   511 -4.066292510E+01  2.462440801E+01  1.221308062E+02  1.310563573E+02  3.568322551E-06  0.00000E+00  9.000E+00
#rwgt            1           1  0.16061199032275927                5      469494           0
</event>
<event>
      5   9999  3.79277E-02  4.36248E+01 -1.00000E+00  1.42542E-01
      21    -1     0     0   512   501  0.000000000E+00  0.000000000E+00  3.058431363E+01  3.058431363E+01  0.000000000E+00  0.00000E+00  9.000E+00
      21    -1     0     0   501   502  0.000000000E+00  0.000000000E+00 -1.765984696E+03  1.765984696E+03  0.000000000E+00  0.00000E+00  9.000E+00
      25     1     1     2     0     0  5.317729914E+01  6.471585537E+01 -1.295411594E+03  1.304121223E+03  1.250000000E+02  0.00000E+00  9.000E+00
      25     1     1     2     0     0 -9.679649024E+01 -6.541669764E+01 -3.913181842E+02  4.270876095E+02  1.250000000E+02  0.00000E+00  9.000E+00
      21     1     1     2   512   502  4.361919111E+01  7.008422675E-01 -4.867060395E+01  6.536017673E+01  6.743495762E-07  0.00000E+00  9.000E+00
#rwgt            1           1   4.4410535790039708E-002           5      469611           0
</event>
<event>
      5   9999  3.79277E-02  2.10698E+01 -1.00000E+00  1.64523E-01
      21    -1     0     0   502   501  0.000000000E+00  0.000000000E+00  6.460245640E+02  6.460245640E+02  0.000000000E+00  0.00000E+00  9.000E+00
      21    -1     0     0   511   502  0.000000000E+00  0.000000000E+00 -1.015988806E+02  1.015988806E+02  0.000000000E+00  0.00000E+00  9.000E+00
      25     1     1     2     0     0  5.365715196E+01 -1.918980113E+02  3.860023286E+02  4.520251480E+02  1.250000000E+02  0.00000E+00  9.000E+00
      25     1     1     2     0     0 -3.494241364E+01  1.822183164E+02  1.590928976E+02  2.745178267E+02  1.250000000E+02  0.00000E+00  9.000E+00
      21     1     1     2   511   501 -1.871473832E+01  9.679694976E+00 -6.695427929E-01  2.108046994E+01  4.451682939E-07  0.00000E+00  9.000E+00
#rwgt            1           1   4.5310267316006986E-002           5      469705           0
</event>
<event>
      5   9999  3.79277E-02  7.41379E+01 -1.00000E+00  1.29970E-01
      21    -1     0     0   502   501  0.000000000E+00  0.000000000E+00  6.291712083E+02  6.291712083E+02  0.000000000E+00  0.00000E+00  9.000E+00
      21    -1     0     0   501   512  0.000000000E+00  0.000000000E+00 -1.350391338E+02  1.350391338E+02  0.000000000E+00  0.00000E+00  9.000E+00
      25     1     1     2     0     0 -3.259577182E+01  5.355190635E+01  4.839764809E+02  5.037742799E+02  1.250000000E+02  0.00000E+00  9.000E+00
      25     1     1     2     0     0  5.786517014E+01  1.614661649E+01  7.870515090E+01  1.594634501E+02  1.250000000E+02  0.00000E+00  9.000E+00
      21     1     1     2   502   512 -2.526939833E+01 -6.969852284E+01 -6.854955728E+01  1.009726120E+02  1.348699152E-06  0.00000E+00  9.000E+00
#rwgt            1           1   3.0980254262516136E-002           5      469858           0
</event>
<event>
      5   9999  3.79277E-02  1.64998E+02 -1.00000E+00  1.14777E-01
       2    -1     0     0   502     0  0.000000000E+00  0.000000000E+00  7.546898394E+02  7.546898394E+02  0.000000000E+00  0.00000E+00  9.000E+00
      21    -1     0     0   501   502  0.000000000E+00  0.000000000E+00 -4.611710039E+02  4.611710039E+02  0.000000000E+00  0.00000E+00  9.000E+00
      25     1     1     2     0     0  2.287935054E+02 -6.783164029E-01 -3.253924776E+02  4.169558642E+02  1.250000000E+02  0.00000E+00  9.000E+00
      25     1     1     2     0     0 -9.824380550E+01  1.015796735E+02  3.468849871E+01  1.918295268E+02  1.250000000E+02  0.00000E+00  9.000E+00
       2     1     1     2   501     0 -1.305496999E+02 -1.009013571E+02  5.842228143E+02  6.070754523E+02  0.000000000E+00  0.00000E+00  9.000E+00
#rwgt            1           1   3.8838178626566848E-002           5      470078           0
</event>
<event>
      5   9999  3.79277E-02  8.77808E+01 -1.00000E+00  1.26428E-01
      -1    -1     0     0     0   501  0.000000000E+00  0.000000000E+00  4.359563896E+02  4.359563896E+02  0.000000000E+00  0.00000E+00  9.000E+00
      21    -1     0     0   501   502  0.000000000E+00  0.000000000E+00 -1.574320059E+02  1.574320059E+02  0.000000000E+00  0.00000E+00  9.000E+00
      25     1     1     2     0     0 -1.477027785E+02  8.456031253E+01  1.097775309E+00  2.111699845E+02  1.250000000E+02  0.00000E+00  9.000E+00
      25     1     1     2     0     0  1.130740174E+02 -3.898597837E+00  1.399946096E+02  2.191447540E+02  1.250000000E+02  0.00000E+00  9.000E+00
      -1     1     1     2     0   502  3.462876111E+01 -8.066171470E+01  1.374319988E+02  1.630736570E+02  2.697398305E-06  0.00000E+00  9.000E+00
#rwgt            1           1   6.7548069732242144E-002           5      470123           0
</event>
<event>
      5   9999  3.79277E-02  6.40021E+01 -1.00000E+00  1.33222E-01
      -2    -1     0     0     0   501  0.000000000E+00  0.000000000E+00  1.131999484E+03  1.131999484E+03  0.000000000E+00  0.00000E+00  9.000E+00
      21    -1     0     0   501   502  0.000000000E+00  0.000000000E+00 -5.567505466E+02  5.567505466E+02  0.000000000E+00  0.00000E+00  9.000E+00
      25     1     1     2     0     0 -1.170321579E+02 -5.799249044E+01  8.868948555E+01  2.013714969E+02  1.250000000E+02  0.00000E+00  9.000E+00
      25     1     1     2     0     0  1.141996368E+02 -5.946889466E+00 -4.849871725E+02  5.137260749E+02  1.250000000E+02  0.00000E+00  9.000E+00
      -2     1     1     2     0   502  2.832521017E+00  6.393937991E+01  9.715466242E+02  9.736524588E+02  1.525878906E-05  0.00000E+00  9.000E+00
#rwgt            1           1   3.7720532200636439E-002           5      470460           0
</event>
<event>
      5   9999 -3.79277E-02  6.69009E+01 -1.00000E+00  1.32224E-01
      21    -1     0     0   502   501  0.000000000E+00  0.000000000E+00  3.016918921E+03  3.016918921E+03  0.000000000E+00  0.00000E+00  9.000E+00
      21    -1     0     0   501   511  0.000000000E+00  0.000000000E+00 -3.617555329E+01  3.617555329E+01  0.000000000E+00  0.00000E+00  9.000E+00
      25     1     1     2     0     0 -2.172384066E+02  1.671457402E+02  1.747097165E+03  1.772880065E+03  1.250000000E+02  0.00000E+00  9.000E+00
      25     1     1     2     0     0  1.687186392E+02 -1.210853573E+02  1.137780022E+03  1.163312521E+03  1.250000000E+02  0.00000E+00  9.000E+00
      21     1     1     2   502   511  4.851976740E+01 -4.606038288E+01  9.586618059E+01  1.169018874E+02  3.568322551E-06  0.00000E+00  9.000E+00
#rwgt            1           1 -0.10388456399456972                5      470605           0
</event>
<event>
      5   9999  3.79277E-02  1.38598E+01 -1.00000E+00  1.80680E-01
      21    -1     0     0   502   501  0.000000000E+00  0.000000000E+00  7.722011606E+02  7.722011606E+02  0.000000000E+00  0.00000E+00  9.000E+00
      21    -1     0     0   501   512  0.000000000E+00  0.000000000E+00 -8.871720699E+01  8.871720699E+01  0.000000000E+00  0.00000E+00  9.000E+00
      25     1     1     2     0     0  9.859137741E+01 -1.093022897E+02  2.635029401E+02  3.266895310E+02  1.250000000E+02  0.00000E+00  9.000E+00
      25     1     1     2     0     0 -8.718634023E+01  1.014270364E+02  4.582837716E+02  4.934956099E+02  1.250000000E+02  0.00000E+00  9.000E+00
      21     1     1     2   502   512 -1.140503718E+01  7.875253337E+00 -3.830275804E+01  4.073322675E+01  1.581489940E-06  0.00000E+00  9.000E+00
#rwgt            1           1   6.5774372441244865E-003           5      470759           0
</event>
<event>
      5   9999  3.79277E-02  5.32537E+01 -1.00000E+00  1.37531E-01
      21    -1     0     0   502   511  0.000000000E+00  0.000000000E+00  1.463691513E+02  1.463691513E+02  0.000000000E+00  0.00000E+00  9.000E+00
      21    -1     0     0   501   502  0.000000000E+00  0.000000000E+00 -4.124109381E+02  4.124109381E+02  0.000000000E+00  0.00000E+00  9.000E+00
      25     1     1     2     0     0 -1.507974258E+02  6.259248646E+01 -8.380342592E+01  2.220488622E+02  1.250000000E+02  0.00000E+00  9.000E+00
      25     1     1     2     0     0  1.858349026E+02 -2.248853487E+01 -1.700424750E+02  2.820988985E+02  1.250000000E+02  0.00000E+00  9.000E+00
      21     1     1     2   501   511 -3.503747678E+01 -4.010395159E+01 -1.219588599E+01  5.463232877E+01  8.760057960E-07  0.00000E+00  9.000E+00
#rwgt            1           1   2.6152192752685193E-002           5      471051           0
</event>
<event>
      5   9999  3.79277E-02  9.13628E+00 -1.00000E+00  2.00404E-01
      21    -1     0     0   502   501  0.000000000E+00  0.000000000E+00  1.514696475E+02  1.514696475E+02  0.000000000E+00  0.00000E+00  9.000E+00
      21    -1     0     0   512   502  0.000000000E+00  0.000000000E+00 -1.056813135E+03  1.056813135E+03  0.000000000E+00  0.00000E+00  9.000E+00
      25     1     1     2     0     0 -1.194155427E+02 -8.474129541E+01 -1.624783491E+02  2.519233473E+02  1.250000000E+02  0.00000E+00  9.000E+00
      25     1     1     2     0     0  1.248436986E+02  7.739236245E+01  1.957443709E+01  1.938651218E+02  1.250000000E+02  0.00000E+00  9.000E+00
      21     1     1     2   512   501 -5.428155947E+00  7.348932960E+00 -7.624395757E+02  7.624943136E+02  1.525878906E-05  0.00000E+00  9.000E+00
#rwgt            1           1   3.6038272674241874E-002           5      471141           0
</event>
<event>
      5   9999  3.79277E-02  2.75903E+01 -1.00000E+00  1.55609E-01
      21    -1     0     0   502   501  0.000000000E+00  0.000000000E+00  3.445789999E+03  3.445789999E+03  0.000000000E+00  0.00000E+00  9.000E+00
      21    -1     0     0   511   502  0.000000000E+00  0.000000000E+00 -1.573230411E+01  1.573230411E+01  0.000000000E+00  0.00000E+00  9.000E+00
      25     1     1     2     0     0 -7.687248668E+01  1.102757512E+01  4.409145098E+02  4.648242588E+02  1.250000000E+02  0.00000E+00  9.000E+00
      25     1     1     2     0     0  8.498153467E+01  1.534417863E+01  2.883877209E+03  2.887876393E+03  1.250000000E+02  0.00000E+00  9.000E+00
      21     1     1     2   511   501 -8.109047990E+00 -2.637175375E+01  1.052659763E+02  1.088216514E+02  0.000000000E+00  0.00000E+00  9.000E+00
#rwgt            1           1   2.2164115811192646E-002           5      471409           0
</event>
<event>
      5   9999  3.79277E-02  9.01010E+01 -1.00000E+00  1.25899E-01
      21    -1     0     0   502   512  0.000000000E+00  0.000000000E+00  1.397725258E+02  1.397725258E+02  0.000000000E+00  0.00000E+00  9.000E+00
      21    -1     0     0   501   502  0.000000000E+00  0.000000000E+00 -6.649653240E+02  6.649653240E+02  0.000000000E+00  0.00000E+00  9.000E+00
      25     1     1     2     0     0  7.188936105E+01  2.607445025E+01  1.214505106E+01  1.470389726E+02  1.250000000E+02  0.00000E+00  9.000E+00
      25     1     1     2     0     0 -1.510247883E+02  1.700416086E+01 -5.322417896E+02  5.674539195E+02  1.250000000E+02  0.00000E+00  9.000E+00
      21     1     1     2   501   512  7.913542721E+01 -4.307861112E+01 -5.096059692E+00  9.024495776E+01  2.254757919E-06  0.00000E+00  9.000E+00
#rwgt            1           1   3.9496869383932702E-002           5      471537           0
</event>
<event>
      5   9999  3.79277E-02  3.47855E+01 -1.00000E+00  1.48705E-01
       1    -1     0     0   502     0  0.000000000E+00  0.000000000E+00  1.018580835E+02  1.018580835E+02  0.000000000E+00  0.00000E+00  9.000E+00
      21    -1     0     0   501   502  0.000000000E+00  0.000000000E+00 -9.291865858E+02  9.291865858E+02  0.000000000E+00  0.00000E+00  9.000E+00
      25     1     1     2     0     0 -4.121411565E+01  2.889793198E+00 -6.904415656E+02  7.028808645E+02  1.250000000E+02  0.00000E+00  9.000E+00
      25     1     1     2     0     0  7.163693048E+01 -1.975646735E+01 -2.052001346E+02  2.515040020E+02  1.250000000E+02  0.00000E+00  9.000E+00
       1     1     1     2   501     0 -3.042281483E+01  1.686667416E+01  6.831319783E+01  7.665980274E+01  2.523185073E-06  0.00000E+00  9.000E+00
#rwgt            1           1   6.8319027983878872E-002           5      471668           0
</event>
<event>
      5   9999  3.79277E-02  4.28073E+01 -1.00000E+00  1.43037E-01
      21    -1     0     0   502   501  0.000000000E+00  0.000000000E+00  5.738310691E+02  5.738310691E+02  0.000000000E+00  0.00000E+00  9.000E+00
      21    -1     0     0   511   502  0.000000000E+00  0.000000000E+00 -2.508483704E+02  2.508483704E+02  0.000000000E+00  0.00000E+00  9.000E+00
      25     1     1     2     0     0  3.577135759E+01  1.933450893E+02  4.313935526E+02  4.902930867E+02  1.250000000E+02  0.00000E+00  9.000E+00
      25     1     1     2     0     0 -2.688200642E+01 -1.514709393E+02  1.981120212E+01  1.992073579E+02  1.250000000E+02  0.00000E+00  9.000E+00
      21     1     1     2   511   501 -8.889351164E+00 -4.187415006E+01 -1.282220560E+02  1.351789949E+02  2.697398305E-06  0.00000E+00  9.000E+00
#rwgt            1           1   2.8877058899007102E-002           5      471853           0
</event>
<event>
      5   9999  3.79277E-02  5.25202E+01 -1.00000E+00  1.37868E-01
       2    -1     0     0   502     0  0.000000000E+00  0.000000000E+00  2.561189909E+03  2.561189909E+03  0.000000000E+00  0.00000E+00  9.000E+00
      21    -1     0     0   501   502  0.000000000E+00  0.000000000E+00 -5.432165931E+02  5.432165931E+02  0.000000000E+00  0.00000E+00  9.000E+00
      25     1     1     2     0     0  8.736566576E+01  2.725639494E+01 -1.235894260E+02  1.981792543E+02  1.250000000E+02  0.00000E+00  9.000E+00
      25     1     1     2     0     0 -4.646505268E+01 -6.020348101E+01 -3.680488387E+02  3.960661661E+02  1.250000000E+02  0.00000E+00  9.000E+00
       2     1     1     2   501     0 -4.090061308E+01  3.294708607E+01  2.509611581E+03  2.510161082E+03  3.051757812E-05  0.00000E+00  9.000E+00
#rwgt            1           1   4.1347539579726963E-002           5      472019           0
</event>
<event>
      5   9999  3.79277E-02  1.25067E+01 -1.00000E+00  1.85159E-01
      21    -1     0     0   511   501  0.000000000E+00  0.000000000E+00  4.900816873E+01  4.900816873E+01  0.000000000E+00  0.00000E+00  9.000E+00
      21    -1     0     0   501   502  0.000000000E+00  0.000000000E+00 -7.818696172E+02  7.818696172E+02  0.000000000E+00  0.00000E+00  9.000E+00
      25     1     1     2     0     0  9.094975967E+01 -6.851018242E+01 -1.946738744E+02  2.578534880E+02  1.250000000E+02  0.00000E+00  9.000E+00
      25     1     1     2     0     0 -1.002619191E+02  6.016146474E+01 -5.324110093E+02  5.592480104E+02  1.250000000E+02  0.00000E+00  9.000E+00
      21     1     1     2   511   502  9.312159419E+00  8.348717676E+00 -5.776564750E+00  1.377628761E+01  3.475518164E-07  0.00000E+00  9.000E+00
#rwgt            1           1   4.3816588566270513E-002           5      472132           0
</event>
<event>
      5   9999  3.79277E-02  1.15945E+01 -1.00000E+00  1.88612E-01
      21    -1     0     0   502   501  0.000000000E+00  0.000000000E+00  1.818661208E+03  1.818661208E+03  0.000000000E+00  0.00000E+00  9.000E+00
      21    -1     0     0   501   512  0.000000000E+00  0.000000000E+00 -6.134013127E+01  6.134013127E+01  0.000000000E+00  0.00000E+00  9.000E+00
      25     1     1     2     0     0  1.008715569E+02 -2.890722599E+02  9.003037510E+02  9.591192244E+02  1.250000000E+02  0.00000E+00  9.000E+00
      25     1     1     2     0     0 -9.888362533E+01  2.776494895E+02  8.472639820E+02  9.057309013E+02  1.250000000E+02  0.00000E+00  9.000E+00
      21     1     1     2   502   512 -1.987931611E+00  1.142277048E+01  9.753343494E+00  1.515121338E+01  2.064765462E-07  0.00000E+00  9.000E+00
#rwgt            1           1   3.6938592825871162E-002           5      472547           0
</event>
<event>
      5   9999  3.79277E-02  4.78210E+01 -1.00000E+00  1.40189E-01
      21    -1     0     0   511   501  0.000000000E+00  0.000000000E+00  5.330688474E+02  5.330688474E+02  0.000000000E+00  0.00000E+00  9.000E+00
      21    -1     0     0   501   502  0.000000000E+00  0.000000000E+00 -2.422262178E+02  2.422262178E+02  0.000000000E+00  0.00000E+00  9.000E+00
      25     1     1     2     0     0  4.266982453E+01 -2.491563933E+02  1.155844563E+02  3.047694026E+02  1.250000000E+02  0.00000E+00  9.000E+00
      25     1     1     2     0     0 -9.042540035E+01  2.516560805E+02  6.639349842E+00  2.952568659E+02  1.250000000E+02  0.00000E+00  9.000E+00
      21     1     1     2   511   502  4.775557582E+01 -2.499687240E+00  1.686188234E+02  1.752687967E+02  2.697398305E-06  0.00000E+00  9.000E+00
#rwgt            1           1   5.0024246444215069E-002           5      472831           0
</event>
<event>
      5   9999  3.79277E-02  4.19398E+01 -1.00000E+00  1.43576E-01
      21    -1     0     0   502   512  0.000000000E+00  0.000000000E+00  1.712366731E+03  1.712366731E+03  0.000000000E+00  0.00000E+00  9.000E+00
      21    -1     0     0   501   502  0.000000000E+00  0.000000000E+00 -4.454701065E+01  4.454701065E+01  0.000000000E+00  0.00000E+00  9.000E+00
      25     1     1     2     0     0 -1.404576299E+02 -7.404352934E+01  5.696389707E+02  6.044206706E+02  1.250000000E+02  0.00000E+00  9.000E+00
      25     1     1     2     0     0  1.679235964E+02  1.057384799E+02  4.938625114E+02  5.467212640E+02  1.250000000E+02  0.00000E+00  9.000E+00
      21     1     1     2   501   512 -2.746596646E+01 -3.169495059E+01  6.043182384E+02  6.057718072E+02  0.000000000E+00  0.00000E+00  9.000E+00
#rwgt            1           1   4.8122731991300544E-002           5      473039           0
</event>
<event>
      5   9999  3.79277E-02  3.53021E+01 -1.00000E+00  1.48288E-01
      21    -1     0     0   511   501  0.000000000E+00  0.000000000E+00  2.067453682E+02  2.067453682E+02  0.000000000E+00  0.00000E+00  9.000E+00
      21    -1     0     0   501   502  0.000000000E+00  0.000000000E+00 -1.120416827E+03  1.120416827E+03  0.000000000E+00  0.00000E+00  9.000E+00
      25     1     1     2     0     0 -2.068883501E+01 -1.842667522E+01 -5.706428252E+01  1.401745433E+02  1.250000000E+02  0.00000E+00  9.000E+00
      25     1     1     2     0     0  4.829893984E+01 -3.571489500E+00 -1.015454526E+03  1.024264827E+03  1.250000000E+02  0.00000E+00  9.000E+00
      21     1     1     2   511   502 -2.761010484E+01  2.199816472E+01  1.588473495E+02  1.627228244E+02  0.000000000E+00  0.00000E+00  9.000E+00
#rwgt            1           1   4.2486315687449962E-002           5      473174           0
</event>
<event>
      5   9999  3.79277E-02  6.03089E+01 -1.00000E+00  1.34584E-01
      21    -1     0     0   502   501  0.000000000E+00  0.000000000E+00  8.667196913E+01  8.667196913E+01  0.000000000E+00  0.00000E+00  9.000E+00
      21    -1     0     0   512   502  0.000000000E+00  0.000000000E+00 -5.226997501E+02  5.226997501E+02  0.000000000E+00  0.00000E+00  9.000E+00
      25     1     1     2     0     0  6.891047680E+01 -1.711495111E+01 -6.780655353E+01  1.589474884E+02  1.250000000E+02  0.00000E+00  9.000E+00
      25     1     1     2     0     0 -9.979483916E+01 -3.468579768E+01 -1.432293616E+02  2.174896883E+02  1.250000000E+02  0.00000E+00  9.000E+00
      21     1     1     2   512   501  3.088436236E+01  5.180074879E+01 -2.249918658E+02  2.329345425E+02  0.000000000E+00  0.00000E+00  9.000E+00
#rwgt            1           1   2.8792472142368245E-002           5      473401           0
</event>
<event>
      5   9999  3.79277E-02  3.02395E+01 -1.00000E+00  1.52800E-01
      21    -1     0     0   502   501  0.000000000E+00  0.000000000E+00  3.163646448E+02  3.163646448E+02  0.000000000E+00  0.00000E+00  9.000E+00
      21    -1     0     0   501   511  0.000000000E+00  0.000000000E+00 -8.787487429E+02  8.787487429E+02  0.000000000E+00  0.00000E+00  9.000E+00
      25     1     1     2     0     0  3.401252562E+01 -1.283493334E+02  2.596052049E+02  3.172542603E+02  1.250000000E+02  0.00000E+00  9.000E+00
      25     1     1     2     0     0 -2.884266260E+01  9.855504841E+01 -2.098147188E+02  2.649381305E+02  1.250000000E+02  0.00000E+00  9.000E+00
      21     1     1     2   502   511 -5.169863022E+00  2.979428499E+01 -6.121745842E+02  6.129209969E+02  7.629394531E-06  0.00000E+00  9.000E+00
#rwgt            1           1   4.3520282839408085E-002           5      473538           0
</event>
<event>
      5   9999  3.79277E-02  9.40542E+00 -1.00000E+00  1.98886E-01
      21    -1     0     0   502   512  0.000000000E+00  0.000000000E+00  2.171363396E+03  2.171363396E+03  0.000000000E+00  0.00000E+00  9.000E+00
      21    -1     0     0   501   502  0.000000000E+00  0.000000000E+00 -1.985767933E+01  1.985767933E+01  0.000000000E+00  0.00000E+00  9.000E+00
      25     1     1     2     0     0  1.390255307E+02  2.425231627E+01  7.572020379E+02  7.803180116E+02  1.250000000E+02  0.00000E+00  9.000E+00
      25     1     1     2     0     0 -1.300803245E+02 -2.134626762E+01  9.924493577E+02  1.008938691E+03  1.250000000E+02  0.00000E+00  9.000E+00
      21     1     1     2   501   512 -8.945206218E+00 -2.906048654E+00  4.018543211E+02  4.019643731E+02  7.629394531E-06  0.00000E+00  9.000E+00
#rwgt            1           1  0.18049847855917278                5      473707           0
</event>
<event>
      5   9999  3.79277E-02  1.24001E+02 -1.00000E+00  1.19767E-01
      21    -1     0     0   502   501  0.000000000E+00  0.000000000E+00  4.920980896E+02  4.920980896E+02  0.000000000E+00  0.00000E+00  9.000E+00
      21    -1     0     0   511   502  0.000000000E+00  0.000000000E+00 -1.469289637E+02  1.469289637E+02  0.000000000E+00  0.00000E+00  9.000E+00
      25     1     1     2     0     0  1.184947194E+02 -5.651244127E+01  1.621276529E+02  2.431975131E+02  1.250000000E+02  0.00000E+00  9.000E+00
      25     1     1     2     0     0 -4.298526117E+01  1.548722658E+02  1.800350152E+02  2.717917550E+02  1.250000000E+02  0.00000E+00  9.000E+00
      21     1     1     2   511   501 -7.550945822E+01 -9.835982456E+01  3.006457883E+00  1.240377852E+02  1.268613139E-06  0.00000E+00  9.000E+00
#rwgt            1           1   3.8468517920035424E-002           5      473958           0
</event>
<event>
      5   9999  3.79277E-02  3.08863E+01 -1.00000E+00  1.52167E-01
      21    -1     0     0   502   501  0.000000000E+00  0.000000000E+00  1.901749245E+03  1.901749245E+03  0.000000000E+00  0.00000E+00  9.000E+00
      21    -1     0     0   512   502  0.000000000E+00  0.000000000E+00 -6.975535679E+01  6.975535679E+01  0.000000000E+00  0.00000E+00  9.000E+00
      25     1     1     2     0     0  6.220738585E+01 -2.967392909E+02  8.661326568E+02  9.261397005E+02  1.250000000E+02  0.00000E+00  9.000E+00
      25     1     1     2     0     0 -8.383225581E+01  2.746864156E+02  9.648994546E+02  1.014463618E+03  1.250000000E+02  0.00000E+00  9.000E+00
      21     1     1     2   512   501  2.162486996E+01  2.205287530E+01  9.617766866E-01  3.090128354E+01  1.298839438E-06  0.00000E+00  9.000E+00
#rwgt            1           1   4.3981100931638512E-002           5      474028           0
</event>
<event>
      5   9999  3.79277E-02  4.86199E+01 -1.00000E+00  1.39773E-01
      21    -1     0     0   502   511  0.000000000E+00  0.000000000E+00  5.335412393E+02  5.335412393E+02  0.000000000E+00  0.00000E+00  9.000E+00
      21    -1     0     0   501   502  0.000000000E+00  0.000000000E+00 -5.796618876E+02  5.796618876E+02  0.000000000E+00  0.00000E+00  9.000E+00
      25     1     1     2     0     0  2.231847164E+02 -2.139188325E+01 -6.784010529E+01  2.655114126E+02  1.250000000E+02  0.00000E+00  9.000E+00
      25     1     1     2     0     0 -2.542751164E+02 -1.598837992E+01 -3.625201619E+02  4.603882393E+02  1.250000000E+02  0.00000E+00  9.000E+00
      21     1     1     2   501   511  3.109040001E+01  3.738026317E+01  3.842396188E+02  3.873034750E+02  5.394796609E-06  0.00000E+00  9.000E+00
#rwgt            1           1   3.6962361269251974E-002           5      474234           0
</event>
<event>
      5   9999  3.79277E-02  4.35106E+01 -1.00000E+00  1.42610E-01
      21    -1     0     0   502   501  0.000000000E+00  0.000000000E+00  2.083725831E+02  2.083725831E+02  0.000000000E+00  0.00000E+00  9.000E+00
      21    -1     0     0   501   512  0.000000000E+00  0.000000000E+00 -5.452068191E+02  5.452068191E+02  0.000000000E+00  0.00000E+00  9.000E+00
      25     1     1     2     0     0 -6.749883076E+01  6.129895503E+01  1.507714500E+02  2.160339884E+02  1.250000000E+02  0.00000E+00  9.000E+00
      25     1     1     2     0     0  2.624545243E+01 -7.513127563E+01 -2.127692494E+02  2.592861081E+02  1.250000000E+02  0.00000E+00  9.000E+00
      21     1     1     2   502   512  4.125337833E+01  1.383232060E+01 -2.748364366E+02  2.782593057E+02  3.814697266E-06  0.00000E+00  9.000E+00
#rwgt            1           1   6.1226976200908275E-003           5      474530           0
</event>
<event>
      5   9999  3.79277E-02  3.19096E+01 -1.00000E+00  1.51201E-01
       1    -1     0     0   502     0  0.000000000E+00  0.000000000E+00  7.466164558E+02  7.466164558E+02  0.000000000E+00  0.00000E+00  9.000E+00
      21    -1     0     0   501   502  0.000000000E+00  0.000000000E+00 -1.861862831E+02  1.861862831E+02  0.000000000E+00  0.00000E+00  9.000E+00
      25     1     1     2     0     0 -2.175489052E+02 -2.152092835E+01  4.665704404E+01  2.561104376E+02  1.250000000E+02  0.00000E+00  9.000E+00
      25     1     1     2     0     0  2.312217254E+02 -7.310922207E+00  1.331585997E+02  2.947425123E+02  1.250000000E+02  0.00000E+00  9.000E+00
       1     1     1     2   501     0 -1.367282020E+01  2.883185056E+01  3.806145290E+02  3.819497890E+02  5.394796609E-06  0.00000E+00  9.000E+00
#rwgt            1           1   2.6276974371809803E-002           5      474596           0
</event>
<event>
      5   9999  3.79277E-02  4.46380E+01 -1.00000E+00  1.41946E-01
      21    -1     0     0   502   511  0.000000000E+00  0.000000000E+00  1.619498728E+03  1.619498728E+03  0.000000000E+00  0.00000E+00  9.000E+00
      21    -1     0     0   501   502  0.000000000E+00  0.000000000E+00 -6.487115624E+02  6.487115624E+02  0.000000000E+00  0.00000E+00  9.000E+00
      25     1     1     2     0     0  1.900251078E+01  5.193981806E+01 -5.970713712E+02  6.125178058E+02  1.250000000E+02  0.00000E+00  9.000E+00
      25     1     1     2     0     0  2.563550458E+01 -5.192082687E+01  6.526913502E+01  1.524401894E+02  1.250000000E+02  0.00000E+00  9.000E+00
      21     1     1     2   501   511 -4.463801536E+01 -1.899119506E-02  1.502589402E+03  1.503252296E+03  2.157918644E-05  0.00000E+00  9.000E+00
#rwgt            1           1   3.5160731965732869E-002           5      474727           0
</event>
<event>
      5   9999  3.79277E-02  3.99030E+02 -1.00000E+00  1.01717E-01
       1    -1     0     0   502     0  0.000000000E+00  0.000000000E+00  1.945329923E+03  1.945329923E+03  0.000000000E+00  0.00000E+00  9.000E+00
      21    -1     0     0   501   502  0.000000000E+00  0.000000000E+00 -1.346303407E+02  1.346303407E+02  0.000000000E+00  0.00000E+00  9.000E+00
      25     1     1     2     0     0  1.741004322E+02 -1.482253852E+02  2.390617782E+02  3.536343579E+02  1.250000000E+02  0.00000E+00  9.000E+00
      25     1     1     2     0     0 -3.288175355E+01 -2.249803842E+02  9.721467320E+02  1.006176750E+03  1.250000000E+02  0.00000E+00  9.000E+00
       1     1     1     2   501     0 -1.412186787E+02  3.732057694E+02  5.994910719E+02  7.201491559E+02  1.078959322E-05  0.00000E+00  9.000E+00
#rwgt            2          17   2.5747753906477112E-005           5      474945           0
</event>
<event>
      5   9999  3.79277E-02  1.17321E+01 -1.00000E+00  1.88065E-01
      21    -1     0     0   502   501  0.000000000E+00  0.000000000E+00  1.774953858E+02  1.774953858E+02  0.000000000E+00  0.00000E+00  9.000E+00
       2    -1     0     0   501     0  0.000000000E+00  0.000000000E+00 -1.575157471E+03  1.575157471E+03  0.000000000E+00  0.00000E+00  9.000E+00
      25     1     1     2     0     0  1.181960895E+02 -2.269647694E+02 -5.104601151E+02  5.845321644E+02  1.250000000E+02  0.00000E+00  9.000E+00
      25     1     1     2     0     0 -1.227602490E+02  2.377727111E+02 -1.488380445E+01  2.957236353E+02  1.250000000E+02  0.00000E+00  9.000E+00
       2     1     1     2   502     0  4.564159469E+00 -1.080794164E+01 -8.723181652E+02  8.723970566E+02  0.000000000E+00  0.00000E+00  9.000E+00
#rwgt            1           1   3.8075809266145504E-002           5      475234           0
</event>
<event>
      5   9999  3.79277E-02  3.34108E+01 -1.00000E+00  1.49861E-01
      21    -1     0     0   502   501  0.000000000E+00  0.000000000E+00  2.799677839E+02  2.799677839E+02  0.000000000E+00  0.00000E+00  9.000E+00
      21    -1     0     0   511   502  0.000000000E+00  0.000000000E+00 -6.613328908E+02  6.613328908E+02  0.000000000E+00  0.00000E+00  9.000E+00
      25     1     1     2     0     0 -1.787356394E+02 -3.375908848E+02 -2.261814311E+02  4.611909302E+02  1.250000000E+02  0.00000E+00  9.000E+00
      25     1     1     2     0     0  1.617988080E+02  3.663906337E+02 -1.336055930E+02  4.403366953E+02  1.250000000E+02  0.00000E+00  9.000E+00
      21     1     1     2   511   501  1.693683135E+01 -2.879974888E+01 -2.157808274E+01  3.977304925E+01  0.000000000E+00  0.00000E+00  9.000E+00
#rwgt            1           1   4.4015096881668284E-002           5      475445           0
</event>
<event>
      5   9999  3.79277E-02  3.67704E+01 -1.00000E+00  1.47145E-01
      21    -1     0     0   502   501  0.000000000E+00  0.000000000E+00  1.665644170E+02  1.665644170E+02  0.000000000E+00  0.00000E+00  9.000E+00
       2    -1     0     0   501     0  0.000000000E+00  0.000000000E+00 -1.367692253E+03  1.367692253E+03  0.000000000E+00  0.00000E+00  9.000E+00
      25     1     1     2     0     0  8.856833626E+01  1.102470876E+02 -1.558051284E+02  2.447427396E+02  1.250000000E+02  0.00000E+00  9.000E+00
      25     1     1     2     0     0 -6.531587583E+01 -1.387319691E+02  4.144261556E+01  2.021267258E+02  1.250000000E+02  0.00000E+00  9.000E+00
       2     1     1     2   502     0 -2.325246043E+01  2.848488146E+01 -1.086765323E+03  1.087387204E+03  1.525878906E-05  0.00000E+00  9.000E+00
#rwgt            1           1   3.4526896310174901E-002           5      475609           0
</event>
<event>
      5   9999  3.79277E-02  1.58414E+01 -1.00000E+00  1.75179E-01
      21    -1     0     0   502   501  0.000000000E+00  0.000000000E+00  1.160136436E+02  1.160136436E+02  0.000000000E+00  0.00000E+00  9.000E+00
      21    -1     0     0   501   511  0.000000000E+00  0.000000000E+00 -1.040726267E+03  1.040726267E+03  0.000000000E+00  0.00000E+00  9.000E+00
      25     1     1     2     0     0  4.359799111E+01 -4.553069809E+01  4.623810895E+01  1.474340260E+02  1.250000000E+02  0.00000E+00  9.000E+00
      25     1     1     2     0     0 -5.836690175E+01  3.980092136E+01 -2.508848298E+02  2.890657475E+02  1.250000000E+02  0.00000E+00  9.000E+00
      21     1     1     2   502   511  1.476891064E+01  5.729776735E+00 -7.200659025E+02  7.202401371E+02  1.321449896E-05  0.00000E+00  9.000E+00
#rwgt            1           1   4.5365052914566474E-002           5      475726           0
</event>
<event>
      5   9999  3.79277E-02  3.48506E+01 -1.00000E+00  1.48652E-01
      21    -1     0     0   502   501  0.000000000E+00  0.000000000E+00  1.010713910E+02  1.010713910E+02  0.000000000E+00  0.00000E+00  9.000E+00
      21    -1     0     0   512   502  0.000000000E+00  0.000000000E+00 -6.028692718E+02  6.028692718E+02  0.000000000E+00  0.00000E+00  9.000E+00
      25     1     1     2     0     0  1.544163380E+02 -7.594338117E+01 -9.756663727E+01  2.340001096E+02  1.250000000E+02  0.00000E+00  9.000E+00
      25     1     1     2     0     0 -1.284173995E+02  9.915158248E+01 -3.440397427E+02  4.003878237E+02  1.250000000E+02  0.00000E+00  9.000E+00
      21     1     1     2   512   501 -2.599893852E+01 -2.320820131E+01 -6.019150084E+01  6.955272954E+01  9.536743164E-07  0.00000E+00  9.000E+00
#rwgt            1           1   4.3694320345404616E-002           5      475921           0
</event>
<event>
      5   9999  3.79277E-02  2.01034E+01 -1.00000E+00  1.66184E-01
       1    -1     0     0   502     0  0.000000000E+00  0.000000000E+00  2.542943448E+03  2.542943448E+03  0.000000000E+00  0.00000E+00  9.000E+00
      21    -1     0     0   501   502  0.000000000E+00  0.000000000E+00 -5.133554247E+01  5.133554247E+01  0.000000000E+00  0.00000E+00  9.000E+00
      25     1     1     2     0     0 -2.213630105E+01 -1.961921906E+02  3.651099735E+02  4.334878133E+02  1.250000000E+02  0.00000E+00  9.000E+00
      25     1     1     2     0     0  2.375967600E+00  1.998904097E+02  7.970003641E+02  8.311416254E+02  1.250000000E+02  0.00000E+00  9.000E+00
       1     1     1     2   501     0  1.976033345E+01 -3.698219112E+00  1.329497568E+03  1.329649552E+03  2.157918644E-05  0.00000E+00  9.000E+00
#rwgt            1           1   2.2876785658880770E-002           5      476092           0
</event>
<event>
      5   9999  3.79277E-02  2.20551E+02 -1.00000E+00  1.10123E-01
      21    -1     0     0   502   501  0.000000000E+00  0.000000000E+00  3.714471062E+02  3.714471062E+02  0.000000000E+00  0.00000E+00  9.000E+00
      21    -1     0     0   511   502  0.000000000E+00  0.000000000E+00 -3.877720623E+02  3.877720623E+02  0.000000000E+00  0.00000E+00  9.000E+00
      25     1     1     2     0     0  1.379843730E+02 -2.162691140E+02  2.737082253E+01  2.866813192E+02  1.250000000E+02  0.00000E+00  9.000E+00
      25     1     1     2     0     0  7.838086089E+01  1.735035319E+02  4.955520236E+01  2.330831461E+02  1.250000000E+02  0.00000E+00  9.000E+00
      21     1     1     2   511   501 -2.163652339E+02  4.276558211E+01 -9.325098100E+01  2.394547032E+02  2.336015456E-06  0.00000E+00  9.000E+00
#rwgt            1           1   4.4953746428257266E-002           5      476285           0
</event>
<event>
      5   9999  3.79277E-02  5.03481E+01 -1.00000E+00  1.38904E-01
      21    -1     0     0   502   501  0.000000000E+00  0.000000000E+00  2.247988053E+02  2.247988053E+02  0.000000000E+00  0.00000E+00  9.000E+00
      21    -1     0     0   501   512  0.000000000E+00  0.000000000E+00 -2.235369816E+02  2.235369816E+02  0.000000000E+00  0.00000E+00  9.000E+00
      25     1     1     2     0     0 -2.359770404E+01  1.149838040E+02  1.119577234E+01  1.718385060E+02  1.250000000E+02  0.00000E+00  9.000E+00
      25     1     1     2     0     0  7.286962862E+01 -1.253377909E+02  5.036490543E+01  1.979423358E+02  1.250000000E+02  0.00000E+00  9.000E+00
      21     1     1     2   502   512 -4.927192457E+01  1.035398688E+01 -6.029885414E+01  7.855494514E+01  1.651812370E-06  0.00000E+00  9.000E+00
#rwgt            1           1   3.8391210633359610E-002           5      476432           0
</event>
<event>
      5   9999  3.79277E-02  1.71559E+01 -1.00000E+00  1.72060E-01
      21    -1     0     0   502   501  0.000000000E+00  0.000000000E+00  4.392414003E+02  4.392414003E+02  0.000000000E+00  0.00000E+00  9.000E+00
       2    -1     0     0   501     0  0.000000000E+00  0.000000000E+00 -1.743196823E+03  1.743196823E+03  0.000000000E+00  0.00000E+00  9.000E+00
      25     1     1     2     0     0  1.885276473E+02  6.320010021E+01  1.731558656E+02  2.917959565E+02  1.250000000E+02  0.00000E+00  9.000E+00
      25     1     1     2     0     0 -1.738628610E+02 -7.210339542E+01  1.449794137E+02  2.684608434E+02  1.250000000E+02  0.00000E+00  9.000E+00
       2     1     1     2   502     0 -1.466478629E+01  8.903295210E+00 -1.622090702E+03  1.622181423E+03  0.000000000E+00  0.00000E+00  9.000E+00
#rwgt            1           1   2.0865778830582504E-002           5      476712           0
</event>
<event>
      5   9999  3.79277E-02  3.65432E+01 -1.00000E+00  1.47317E-01
      21    -1     0     0   502   511  0.000000000E+00  0.000000000E+00  3.168955831E+02  3.168955831E+02  0.000000000E+00  0.00000E+00  9.000E+00
      21    -1     0     0   501   502  0.000000000E+00  0.000000000E+00 -7.165512289E+02  7.165512289E+02  0.000000000E+00  0.00000E+00  9.000E+00
      25     1     1     2     0     0 -2.220059534E+01  5.587751857E+01 -3.712789926E+01  1.435919372E+02  1.250000000E+02  0.00000E+00  9.000E+00
      25     1     1     2     0     0  4.028031362E+01 -2.412017429E+01 -6.177569303E+02  6.320228726E+02  1.250000000E+02  0.00000E+00  9.000E+00
      21     1     1     2   501   511 -1.807971829E+01 -3.175734428E+01  2.552291838E+02  2.578320023E+02  5.394796609E-06  0.00000E+00  9.000E+00
#rwgt            1           1   3.9991481382705189E-002           5      476838           0
</event>
<event>
      5   9999  3.79277E-02  9.68857E+00 -1.00000E+00  1.97359E-01
      21    -1     0     0   512   501  0.000000000E+00  0.000000000E+00  1.082354770E+02  1.082354770E+02  0.000000000E+00  0.00000E+00  9.000E+00
      21    -1     0     0   501   502  0.000000000E+00  0.000000000E+00 -5.773611927E+02  5.773611927E+02  0.000000000E+00  0.00000E+00  9.000E+00
      25     1     1     2     0     0 -8.417768397E+01 -1.049931734E+01 -4.539770370E+02  4.784519498E+02  1.250000000E+02  0.00000E+00  9.000E+00
      25     1     1     2     0     0  9.295428145E+01  1.460295254E+01 -5.522241079E+01  1.659164227E+02  1.250000000E+02  0.00000E+00  9.000E+00
      21     1     1     2   512   502 -8.776597483E+00 -4.103635200E+00  4.007373215E+01  4.122829724E+01  4.768371582E-07  0.00000E+00  9.000E+00
#rwgt            1           1   5.2185990346297180E-002           5      476988           0
</event>
<event>
      5   9999  3.79277E-02  2.46321E+01 -1.00000E+00  1.59235E-01
      21    -1     0     0   511   501  0.000000000E+00  0.000000000E+00  4.059009206E+02  4.059009206E+02  0.000000000E+00  0.00000E+00  9.000E+00
      21    -1     0     0   501   502  0.000000000E+00  0.000000000E+00 -2.133433209E+02  2.133433209E+02  0.000000000E+00  0.00000E+00  9.000E+00
      25     1     1     2     0     0 -2.376893663E+01  4.726730447E+00  3.022990247E+02  3.280198236E+02  1.250000000E+02  0.00000E+00  9.000E+00
      25     1     1     2     0     0  4.165952988E+01 -2.165796764E+01 -1.757782268E+02  2.207432196E+02  1.250000000E+02  0.00000E+00  9.000E+00
      21     1     1     2   511   502 -1.789059324E+01  1.693123720E+01  6.603680177E+01  7.048119825E+01  9.536743164E-07  0.00000E+00  9.000E+00
#rwgt            1           1   4.5551749331971217E-002           5      477210           0
</event>
<event>
      5   9999  3.79277E-02  1.69180E+01 -1.00000E+00  1.72598E-01
      21    -1     0     0   502   501  0.000000000E+00  0.000000000E+00  3.772610307E+02  3.772610307E+02  0.000000000E+00  0.00000E+00  9.000E+00
      21    -1     0     0   501   512  0.000000000E+00  0.000000000E+00 -2.411150074E+02  2.411150074E+02  0.000000000E+00  0.00000E+00  9.000E+00
      25     1     1     2     0     0  1.570936570E+02 -1.694574338E+02  1.242627863E+02  2.906208510E+02  1.250000000E+02  0.00000E+00  9.000E+00
      25     1     1     2     0     0 -1.738743124E+02  1.673057375E+02  5.866272274E+01  2.780104339E+02  1.250000000E+02  0.00000E+00  9.000E+00
      21     1     1     2   502   512  1.678065535E+01  2.151696330E+00 -4.677948571E+01  4.974475323E+01  6.743495762E-07  0.00000E+00  9.000E+00
#rwgt            1           1   5.8539169306988811E-002           5      477463           0
</event>
<event>
      5   9999  3.79277E-02  5.58375E+01 -1.00000E+00  1.36393E-01
       2    -1     0     0   502     0  0.000000000E+00  0.000000000E+00  2.074634015E+03  2.074634015E+03  0.000000000E+00  0.00000E+00  9.000E+00
      21    -1     0     0   501   502  0.000000000E+00  0.000000000E+00 -3.769700674E+02  3.769700674E+02  0.000000000E+00  0.00000E+00  9.000E+00
      25     1     1     2     0     0  1.029610661E+02 -1.365795498E+02 -1.059374775E+02  2.368600931E+02  1.250000000E+02  0.00000E+00  9.000E+00
      25     1     1     2     0     0 -4.738175385E+01  1.419428789E+02 -1.588503517E+02  2.514980034E+02  1.250000000E+02  0.00000E+00  9.000E+00
       2     1     1     2   501     0 -5.557931227E+01 -5.363329100E+00  1.962451777E+03  1.963245986E+03  2.157918644E-05  0.00000E+00  9.000E+00
#rwgt            1           1   4.4360318437738605E-002           5      477891           0
</event>
<event>
      5   9999 -3.79277E-02  2.44046E+01 -1.00000E+00  1.59539E-01
      21    -1     0     0   502   501  0.000000000E+00  0.000000000E+00  4.746592880E+01  4.746592880E+01  0.000000000E+00  0.00000E+00  9.000E+00
      21    -1     0     0   501   511  0.000000000E+00  0.000000000E+00 -1.047199876E+03  1.047199876E+03  0.000000000E+00  0.00000E+00  9.000E+00
      25     1     1     2     0     0 -1.360528133E+02 -7.816500928E+01 -6.147280076E+02  6.466341005E+02  1.250000000E+02  0.00000E+00  9.000E+00
      25     1     1     2     0     0  1.128539717E+02  8.574125490E+01 -2.644649850E+02  3.250450892E+02  1.250000000E+02  0.00000E+00  9.000E+00
      21     1     1     2   502   511  2.319884151E+01 -7.576245624E+00 -1.205409548E+02  1.229866152E+02  2.336015456E-06  0.00000E+00  9.000E+00
#rwgt            1           1  -8.2645637884051340E-002           5      477992           0
</event>
<event>
      5   9999  3.79277E-02  1.17902E+02 -1.00000E+00  1.20694E-01
       2    -1     0     0   502     0  0.000000000E+00  0.000000000E+00  1.475733313E+03  1.475733313E+03  0.000000000E+00  0.00000E+00  9.000E+00
      21    -1     0     0   501   502  0.000000000E+00  0.000000000E+00 -2.252229979E+02  2.252229979E+02  0.000000000E+00  0.00000E+00  9.000E+00
      25     1     1     2     0     0 -3.516892219E+01  5.593346067E+01 -1.580829137E+02  2.120863332E+02  1.250000000E+02  0.00000E+00  9.000E+00
      25     1     1     2     0     0  1.038347837E+02  3.990987840E+01  1.498612725E+02  2.246282745E+02  1.250000000E+02  0.00000E+00  9.000E+00
       2     1     1     2   501     0 -6.866586150E+01 -9.584333907E+01  1.258731957E+03  1.264241704E+03  1.525878906E-05  0.00000E+00  9.000E+00
#rwgt            1           1   3.7086327378762454E-002           5      478125           0
</event>
<event>
      5   9999  3.79277E-02  2.13352E+02 -1.00000E+00  1.10636E-01
      21    -1     0     0   502   501  0.000000000E+00  0.000000000E+00  5.528388326E+02  5.528388326E+02  0.000000000E+00  0.00000E+00  9.000E+00
      21    -1     0     0   511   502  0.000000000E+00  0.000000000E+00 -2.565521813E+02  2.565521813E+02  0.000000000E+00  0.00000E+00  9.000E+00
      25     1     1     2     0     0  1.769506778E+02 -2.474363991E+02  2.815071772E+02  4.329059999E+02  1.250000000E+02  0.00000E+00  9.000E+00
      25     1     1     2     0     0 -6.081066045E+01  6.846597684E+01  4.415237269E+01  1.611209435E+02  1.250000000E+02  0.00000E+00  9.000E+00
      21     1     1     2   511   501 -1.161400173E+02  1.789704223E+02 -2.937289865E+01  2.153640705E+02  2.676241913E-06  0.00000E+00  9.000E+00
#rwgt            1           1   3.4193691122387834E-002           5      478263           0
</event>
<event>
      5   9999  3.79277E-02  6.32520E+00 -1.00000E+00  2.21970E-01
      21    -1     0     0   502   501  0.000000000E+00  0.000000000E+00  2.493027808E+02  2.493027808E+02  0.000000000E+00  0.00000E+00  9.000E+00
      21    -1     0     0   501   512  0.000000000E+00  0.000000000E+00 -2.418053488E+02  2.418053488E+02  0.000000000E+00  0.00000E+00  9.000E+00
      25     1     1     2     0     0 -1.864125192E+02 -6.138981606E+01  5.359004212E+01  2.387786202E+02  1.250000000E+02  0.00000E+00  9.000E+00
      25     1     1     2     0     0  1.926243446E+02  6.258205144E+01 -3.642222895E+01  2.407742305E+02  1.250000000E+02  0.00000E+00  9.000E+00
      21     1     1     2   502   512 -6.211825403E+00 -1.192235384E+00 -9.670381179E+00  1.155527898E+01  1.685873940E-07  0.00000E+00  9.000E+00
#rwgt            1           1   4.7250035832858243E-002           5      478339           0
</event>
<event>
      5   9999  3.79277E-02  7.27572E+00 -1.00000E+00  2.13209E-01
      21    -1     0     0   502   501  0.000000000E+00  0.000000000E+00  7.567430807E+02  7.567430807E+02  0.000000000E+00  0.00000E+00  9.000E+00
      21    -1     0     0   511   502  0.000000000E+00  0.000000000E+00 -8.047273706E+01  8.047273706E+01  0.000000000E+00  0.00000E+00  9.000E+00
      25     1     1     2     0     0  4.545234165E+01 -1.628475866E+02  3.513757679E+02  4.094816016E+02  1.250000000E+02  0.00000E+00  9.000E+00
      25     1     1     2     0     0 -5.256149963E+01  1.612997085E+02  3.461616873E+02  4.052569814E+02  1.250000000E+02  0.00000E+00  9.000E+00
      21     1     1     2   511   501  7.109157986E+00  1.547878047E+00 -2.126711147E+01  2.247723479E+01  6.307962682E-07  0.00000E+00  9.000E+00
#rwgt            1           1   3.3880879485297208E-002           5      478678           0
</event>
<event>
      5   9999  3.79277E-02  1.59093E+01 -1.00000E+00  1.75009E-01
      21    -1     0     0   512   501  0.000000000E+00  0.000000000E+00  4.262498522E+02  4.262498522E+02  0.000000000E+00  0.00000E+00  9.000E+00
      21    -1     0     0   501   502  0.000000000E+00  0.000000000E+00 -9.987291853E+01  9.987291853E+01  0.000000000E+00  0.00000E+00  9.000E+00
      25     1     1     2     0     0 -1.869714808E+01 -3.365705437E+00  3.506312932E+02  3.727307542E+02  1.250000000E+02  0.00000E+00  9.000E+00
      25     1     1     2     0     0  1.246926335E+01 -1.127393926E+01 -3.867290179E+01  1.319211036E+02  1.250000000E+02  0.00000E+00  9.000E+00
      21     1     1     2   512   502  6.227884730E+00  1.463964469E+01  1.441854226E+01  2.147091302E+01  1.685873940E-07  0.00000E+00  9.000E+00
#rwgt            1           1   5.0099559234839657E-002           5      478984           0
</event>
<event>
      5   9999  3.79277E-02  7.70496E+01 -1.00000E+00  1.29144E-01
       5    -1     0     0   502     0  0.000000000E+00  0.000000000E+00  4.462622928E+02  4.462622928E+02  0.000000000E+00  0.00000E+00  9.000E+00
      21    -1     0     0   501   502  0.000000000E+00  0.000000000E+00 -6.901337690E+02  6.901337690E+02  0.000000000E+00  0.00000E+00  9.000E+00
      25     1     1     2     0     0  1.380066252E+02 -3.535671419E+01 -3.778995735E+02  4.227635432E+02  1.250000000E+02  0.00000E+00  9.000E+00
      25     1     1     2     0     0 -1.432279671E+02  1.122291568E+02 -2.432952291E+02  3.285227583E+02  1.250000000E+02  0.00000E+00  9.000E+00
       5     1     1     2   501     0  5.221341913E+00 -7.687244259E+01  3.773233264E+02  3.851097603E+02  5.394796609E-06  0.00000E+00  9.000E+00
#rwgt            1           1   4.1567128692314936E-002           5      479311           0
</event>
<event>
      5   9999  3.79277E-02  3.64396E+01 -1.00000E+00  1.47397E-01
      21    -1     0     0   502   511  0.000000000E+00  0.000000000E+00  1.033777738E+02  1.033777738E+02  0.000000000E+00  0.00000E+00  9.000E+00
      21    -1     0     0   501   502  0.000000000E+00  0.000000000E+00 -2.270796542E+03  2.270796542E+03  0.000000000E+00  0.00000E+00  9.000E+00
      25     1     1     2     0     0 -1.583457574E+02 -1.445497247E+02 -4.383800887E+02  5.037559964E+02  1.250000000E+02  0.00000E+00  9.000E+00
      25     1     1     2     0     0  1.219372429E+02  1.430443196E+02 -1.787409449E+03  1.801607035E+03  1.250000000E+02  0.00000E+00  9.000E+00
      21     1     1     2   501   511  3.640851453E+01  1.505405101E+00  5.837076948E+01  6.881128472E+01  3.932099939E-06  0.00000E+00  9.000E+00
#rwgt            1           1   9.2832696581219495E-002           5      479474           0
</event>
<event>
      5   9999  3.79277E-02  8.72357E+01 -1.00000E+00  1.26555E-01
      21    -1     0     0   502   501  0.000000000E+00  0.000000000E+00  7.956222701E+02  7.956222701E+02  0.000000000E+00  0.00000E+00  9.000E+00
      21    -1     0     0   501   512  0.000000000E+00  0.000000000E+00 -8.348447074E+01  8.348447074E+01  0.000000000E+00  0.00000E+00  9.000E+00
      25     1     1     2     0     0 -8.974519225E+01  9.534191952E+00  1.627275786E+02  2.241659323E+02  1.250000000E+02  0.00000E+00  9.000E+00
      25     1     1     2     0     0  1.433275818E+01  3.431810012E+01  5.524673620E+02  5.676516062E+02  1.250000000E+02  0.00000E+00  9.000E+00
      21     1     1     2   502   512  7.541243407E+01 -4.385229208E+01 -3.057141279E+00  8.728920234E+01  1.050294053E-06  0.00000E+00  9.000E+00
#rwgt            1           1   2.8619408130377857E-002           5      479825           0
</event>
<event>
      5   9999 -3.79277E-02  1.05696E+01 -1.00000E+00  1.93017E-01
      21    -1     0     0   502   501  0.000000000E+00  0.000000000E+00  1.040828657E+03  1.040828657E+03  0.000000000E+00  0.00000E+00  9.000E+00
      21    -1     0     0   511   502  0.000000000E+00  0.000000000E+00 -3.661355852E+01  3.661355852E+01  0.000000000E+00  0.00000E+00  9.000E+00
      25     1     1     2     0     0 -9.477486699E+01  1.054983215E+02  4.489153683E+02  4.870956570E+02  1.250000000E+02  0.00000E+00  9.000E+00
      25     1     1     2     0     0  8.709091090E+01 -1.127559270E+02  5.322170930E+02  5.649590781E+02  1.250000000E+02  0.00000E+00  9.000E+00
      21     1     1     2   511   501  7.683956085E+00  7.257605512E+00  2.308263703E+01  2.538748021E+01  0.000000000E+00  0.00000E+00  9.000E+00
#rwgt            1           1 -0.13000524130947894                5      479905           0
</event>
<event>
      5   9999  3.79277E-02  1.33007E+02 -1.00000E+00  1.18501E-01
      21    -1     0     0   502   501  0.000000000E+00  0.000000000E+00  5.217413522E+02  5.217413522E+02  0.000000000E+00  0.00000E+00  9.000E+00
       1    -1     0     0   501     0  0.000000000E+00  0.000000000E+00 -3.789718031E+02  3.789718031E+02  0.000000000E+00  0.00000E+00  9.000E+00
      25     1     1     2     0     0  4.335413341E+01 -1.167684789E+02  4.119859005E+02  4.481872832E+02  1.250000000E+02  0.00000E+00  9.000E+00
      25     1     1     2     0     0  6.414551991E+01  3.844369210E+01  7.129777756E+00  1.458368915E+02  1.250000000E+02  0.00000E+00  9.000E+00
       1     1     1     2   502     0 -1.074996533E+02  7.832478677E+01 -2.763461292E+02  3.066889806E+02  3.814697266E-06  0.00000E+00  9.000E+00
#rwgt            2          12   3.2968634722901213E-004           5      480255           0
</event>
<event>
      5   9999  3.79277E-02  3.51434E+01 -1.00000E+00  1.48415E-01
      21    -1     0     0   502   501  0.000000000E+00  0.000000000E+00  8.522143338E+02  8.522143338E+02  0.000000000E+00  0.00000E+00  9.000E+00
      21    -1     0     0   501   511  0.000000000E+00  0.000000000E+00 -3.646367088E+02  3.646367088E+02  0.000000000E+00  0.00000E+00  9.000E+00
      25     1     1     2     0     0 -1.367703708E+02 -9.828974911E+01  6.684655781E+02  7.005984858E+02  1.250000000E+02  0.00000E+00  9.000E+00
      25     1     1     2     0     0  1.017159809E+02  9.579061693E+01  1.139092713E+02  2.193679675E+02  1.250000000E+02  0.00000E+00  9.000E+00
      21     1     1     2   502   511  3.505438991E+01  2.499132180E+00 -2.947972244E+02  2.968845894E+02  3.814697266E-06  0.00000E+00  9.000E+00
#rwgt            1           1   4.4032961372871861E-002           5      480289           0
</event>
<event>
      5   9999  3.79277E-02  1.47616E+01 -1.00000E+00  1.78041E-01
      21    -1     0     0   502   501  0.000000000E+00  0.000000000E+00  5.043106059E+01  5.043106059E+01  0.000000000E+00  0.00000E+00  9.000E+00
       2    -1     0     0   501     0  0.000000000E+00  0.000000000E+00 -1.130989088E+03  1.130989088E+03  0.000000000E+00  0.00000E+00  9.000E+00
      25     1     1     2     0     0 -1.026200271E+02  8.287282616E+01 -3.894261087E+02  4.297400021E+02  1.250000000E+02  0.00000E+00  9.000E+00
      25     1     1     2     0     0  9.825104136E+01 -9.697311460E+01 -2.574446148E+02  3.177416904E+02  1.250000000E+02  0.00000E+00  9.000E+00
       2     1     1     2   502     0  4.368985698E+00  1.410028844E+01 -4.336873039E+02  4.339384562E+02  7.629394531E-06  0.00000E+00  9.000E+00
#rwgt            1           1   3.2147669180961728E-002           5      480369           0
</event>
<event>
      5   9999  3.79277E-02  5.19298E+01 -1.00000E+00  1.38144E-01
       1    -1     0     0   502     0  0.000000000E+00  0.000000000E+00  7.420242509E+02  7.420242509E+02  0.000000000E+00  0.00000E+00  9.000E+00
      21    -1     0     0   501   502  0.000000000E+00  0.000000000E+00 -2.229220855E+02  2.229220855E+02  0.000000000E+00  0.00000E+00  9.000E+00
      25     1     1     2     0     0 -3.278477864E+01 -3.440117194E+01 -1.885738225E+01  1.350514095E+02  1.250000000E+02  0.00000E+00  9.000E+00
      25     1     1     2     0     0  5.477645094E+00 -9.769268144E+00 -1.177742121E+02  1.721081295E+02  1.250000000E+02  0.00000E+00  9.000E+00
       1     1     1     2   501     0  2.730713354E+01  4.417044008E+01  6.557337597E+02  6.577867975E+02  1.525878906E-05  0.00000E+00  9.000E+00
#rwgt            1           1   1.6180978884886399E-002           5      480683           0
</event>
<event>
      5   9999  3.79277E-02  5.53266E+01 -1.00000E+00  1.36613E-01
      21    -1     0     0   502   501  0.000000000E+00  0.000000000E+00  6.623959852E+01  6.623959852E+01  0.000000000E+00  0.00000E+00  9.000E+00
      21    -1     0     0   501   511  0.000000000E+00  0.000000000E+00 -1.113559463E+03  1.113559463E+03  0.000000000E+00  0.00000E+00  9.000E+00
      25     1     1     2     0     0 -1.038144482E+02 -1.869565258E+02 -3.118452051E+02  3.982494371E+02  1.250000000E+02  0.00000E+00  9.000E+00
      25     1     1     2     0     0  9.943747431E+01  1.318033412E+02 -5.382991601E+02  5.767589772E+02  1.250000000E+02  0.00000E+00  9.000E+00
      21     1     1     2   502   511  4.376973850E+00  5.515318461E+01 -1.971754997E+02  2.047906476E+02  2.697398305E-06  0.00000E+00  9.000E+00
#rwgt            1           1   4.0048802081424029E-002           5      480871           0
</event>
<event>
      5   9999  3.79277E-02  3.19017E+01 -1.00000E+00  1.51209E-01
      21    -1     0     0   502   501  0.000000000E+00  0.000000000E+00  6.700327487E+02  6.700327487E+02  0.000000000E+00  0.00000E+00  9.000E+00
      21    -1     0     0   501   512  0.000000000E+00  0.000000000E+00 -8.482752050E+01  8.482752050E+01  0.000000000E+00  0.00000E+00  9.000E+00
      25     1     1     2     0     0  7.386090527E+01 -1.095201807E+02  4.292700729E+02  4.662058545E+02  1.250000000E+02  0.00000E+00  9.000E+00
      25     1     1     2     0     0 -1.057598615E+02  1.099415903E+02  1.631355218E+02  2.559501906E+02  1.250000000E+02  0.00000E+00  9.000E+00
      21     1     1     2   502   512  3.189895625E+01 -4.214096807E-01 -7.200366501E+00  3.270422409E+01  7.102713160E-07  0.00000E+00  9.000E+00
#rwgt            1           1  0.14143388005139190                5      480958           0
</event>
<event>
      5   9999  3.79277E-02  2.83057E+01 -1.00000E+00  1.54814E-01
      21    -1     0     0   511   501  0.000000000E+00  0.000000000E+00  1.357791391E+02  1.357791391E+02  0.000000000E+00  0.00000E+00  9.000E+00
      21    -1     0     0   501   502  0.000000000E+00  0.000000000E+00 -5.446296851E+02  5.446296851E+02  0.000000000E+00  0.00000E+00  9.000E+00
      25     1     1     2     0     0 -2.181087290E+02  4.392709325E+01 -2.353196005E+02  3.471330027E+02  1.250000000E+02  0.00000E+00  9.000E+00
      25     1     1     2     0     0  2.191471577E+02 -1.564046491E+01 -1.702908640E+02  3.047853002E+02  1.250000000E+02  0.00000E+00  9.000E+00
      21     1     1     2   511   502 -1.038428627E+00 -2.828662834E+01 -3.240081479E+00  2.849052131E+01  4.915124924E-07  0.00000E+00  9.000E+00
#rwgt            1           1   2.5212788588231668E-002           5      481287           0
</event>
<event>
      5   9999  3.79277E-02  4.25427E+01 -1.00000E+00  1.43200E-01
      21    -1     0     0   502   501  0.000000000E+00  0.000000000E+00  2.730110693E+02  2.730110693E+02  0.000000000E+00  0.00000E+00  9.000E+00
      21    -1     0     0   512   502  0.000000000E+00  0.000000000E+00 -5.962741127E+02  5.962741127E+02  0.000000000E+00  0.00000E+00  9.000E+00
      25     1     1     2     0     0 -2.938938838E+01  1.801398243E+02 -5.905059581E+01  2.289673892E+02  1.250000000E+02  0.00000E+00  9.000E+00
      25     1     1     2     0     0  4.740981967E+01 -1.416022940E+02  1.362053369E+02  2.376463643E+02  1.250000000E+02  0.00000E+00  9.000E+00
      21     1     1     2   512   501 -1.802043129E+01 -3.853753035E+01 -4.004177845E+02  4.026714285E+02  0.000000000E+00  0.00000E+00  9.000E+00
#rwgt            1           1   3.3684236124868351E-002           5      481450           0
</event>
<event>
      5   9999  3.79277E-02  4.86870E+01 -1.00000E+00  1.39738E-01
      21    -1     0     0   511   501  0.000000000E+00  0.000000000E+00  4.059986447E+02  4.059986447E+02  0.000000000E+00  0.00000E+00  9.000E+00
      21    -1     0     0   501   502  0.000000000E+00  0.000000000E+00 -1.145654842E+02  1.145654842E+02  0.000000000E+00  0.00000E+00  9.000E+00
      25     1     1     2     0     0 -3.376285107E+01 -1.592485033E+02  1.274202589E+02  2.415800867E+02  1.250000000E+02  0.00000E+00  9.000E+00
      25     1     1     2     0     0  1.387945674E+01  1.148067175E+02  9.644866164E+01  1.957053040E+02  1.250000000E+02  0.00000E+00  9.000E+00
      21     1     1     2   511   502  1.988339432E+01  4.444178587E+01  6.756423998E+01  8.327873813E+01  0.000000000E+00  0.00000E+00  9.000E+00
#rwgt            1           1   3.9232427228858932E-002           5      481579           0
</event>
<event>
      5   9999  3.79277E-02  1.28736E+01 -1.00000E+00  1.83875E-01
      21    -1     0     0   502   501  0.000000000E+00  0.000000000E+00  1.686521850E+02  1.686521850E+02  0.000000000E+00  0.00000E+00  9.000E+00
      21    -1     0     0   501   512  0.000000000E+00  0.000000000E+00 -5.758255483E+02  5.758255483E+02  0.000000000E+00  0.00000E+00  9.000E+00
      25     1     1     2     0     0 -7.766361647E+01  1.895548474E+02 -1.781366021E+02  2.988650641E+02  1.250000000E+02  0.00000E+00  9.000E+00
      25     1     1     2     0     0  7.651052536E+01 -2.023767293E+02 -3.635492605E+01  2.525012509E+02  1.250000000E+02  0.00000E+00  9.000E+00
      21     1     1     2   502   512  1.153091115E+00  1.282188186E+01 -1.926818352E+02  1.931114183E+02  3.814697266E-06  0.00000E+00  9.000E+00
#rwgt            1           1   3.7690940684299866E-002           5      481643           0
</event>
<event>
      5   9999  3.79277E-02  5.74227E+01 -1.00000E+00  1.35730E-01
       2    -1     0     0   502     0  0.000000000E+00  0.000000000E+00  1.342813423E+02  1.342813423E+02  0.000000000E+00  0.00000E+00  9.000E+00
      21    -1     0     0   501   502  0.000000000E+00  0.000000000E+00 -1.001073061E+03  1.001073061E+03  0.000000000E+00  0.00000E+00  9.000E+00
      25     1     1     2     0     0  1.941391454E+02  2.321131017E+02 -4.770169971E+02  5.785643571E+02  1.250000000E+02  0.00000E+00  9.000E+00
      25     1     1     2     0     0 -1.422165994E+02 -2.566369474E+02 -3.838642038E+02  4.990639346E+02  1.250000000E+02  0.00000E+00  9.000E+00
       2     1     1     2   501     0 -5.192254600E+01  2.452384565E+01 -5.910518321E+00  5.772611208E+01  1.565685932E-06  0.00000E+00  9.000E+00
#rwgt            1           1   3.7869630963902064E-002           5      481896           0
</event>
<event>
      5   9999  3.79277E-02  2.36903E+01 -1.00000E+00  1.60521E-01
      21    -1     0     0   502   501  0.000000000E+00  0.000000000E+00  4.981368712E+02  4.981368712E+02  0.000000000E+00  0.00000E+00  9.000E+00
      21    -1     0     0   511   502  0.000000000E+00  0.000000000E+00 -1.355726071E+02  1.355726071E+02  0.000000000E+00  0.00000E+00  9.000E+00
      25     1     1     2     0     0 -7.922180093E+01 -2.589969176E+01  3.789152357E+02  4.076133507E+02  1.250000000E+02  0.00000E+00  9.000E+00
      25     1     1     2     0     0  5.984619823E+01  1.226815890E+01  5.599126061E+01  1.499736525E+02  1.250000000E+02  0.00000E+00  9.000E+00
      21     1     1     2   511   501  1.937560270E+01  1.363153286E+01 -7.234223226E+01  7.612247524E+01  9.536743164E-07  0.00000E+00  9.000E+00
#rwgt            1           1   4.7834022003526176E-002           5      482060           0
</event>
<event>
      5   9999  3.79277E-02  5.95580E+00 -1.00000E+00  2.25972E-01
      21    -1     0     0   502   512  0.000000000E+00  0.000000000E+00  1.704672155E+02  1.704672155E+02  0.000000000E+00  0.00000E+00  9.000E+00
      21    -1     0     0   501   502  0.000000000E+00  0.000000000E+00 -2.009224057E+02  2.009224057E+02  0.000000000E+00  0.00000E+00  9.000E+00
      25     1     1     2     0     0  1.013062785E+02  2.997949860E+00 -9.982549258E+01  1.893728564E+02  1.250000000E+02  0.00000E+00  9.000E+00
      25     1     1     2     0     0 -1.035233811E+02  2.529802834E+00  6.679082832E+01  1.755263658E+02  1.250000000E+02  0.00000E+00  9.000E+00
      21     1     1     2   501   512  2.217102597E+00 -5.527752694E+00  2.579474020E+00  6.490399063E+00  5.161913656E-08  0.00000E+00  9.000E+00
#rwgt            1           1   5.3459169773934952E-002           5      482191           0
</event>
<event>
      5   9999  3.79277E-02  2.44041E+01 -1.00000E+00  1.59540E-01
      21    -1     0     0   502   511  0.000000000E+00  0.000000000E+00  3.619292407E+02  3.619292407E+02  0.000000000E+00  0.00000E+00  9.000E+00
      21    -1     0     0   501   502  0.000000000E+00  0.000000000E+00 -1.991765812E+02  1.991765812E+02  0.000000000E+00  0.00000E+00  9.000E+00
      25     1     1     2     0     0  2.284728089E+02 -5.060363024E+01  5.470911757E+01  2.708849190E+02  1.250000000E+02  0.00000E+00  9.000E+00
      25     1     1     2     0     0 -2.057996395E+02  4.157647671E+01  9.242093220E+01  2.612445669E+02  1.250000000E+02  0.00000E+00  9.000E+00
      21     1     1     2   501   511 -2.267316942E+01  9.027153533E+00  1.562260967E+01  2.897633595E+01  3.769728732E-07  0.00000E+00  9.000E+00
#rwgt            2          11   1.0096471501501315E-002           5      482488           0
</event>
<event>
      5   9999  3.79277E-02  4.04157E+01 -1.00000E+00  1.44562E-01
      21    -1     0     0   502   501  0.000000000E+00  0.000000000E+00  3.992685788E+02  3.992685788E+02  0.000000000E+00  0.00000E+00  9.000E+00
      21    -1     0     0   512   502  0.000000000E+00  0.000000000E+00 -1.622581225E+02  1.622581225E+02  0.000000000E+00  0.00000E+00  9.000E+00
      25     1     1     2     0     0  1.339477063E+01 -1.142714672E+02  3.071917097E+02  3.510400755E+02  1.250000000E+02  0.00000E+00  9.000E+00
      25     1     1     2     0     0  1.490407655E+00  7.669672533E+01 -8.245142374E+01  1.682493574E+02  1.250000000E+02  0.00000E+00  9.000E+00
      21     1     1     2   512   501 -1.488517829E+01  3.757474186E+01  1.227017029E+01  4.223726835E+01  2.920019320E-07  0.00000E+00  9.000E+00
#rwgt            1           1   3.5846101368912205E-002           5      482508           0
</event>
<event>
      5   9999  3.79277E-02  3.47730E+01 -1.00000E+00  1.48716E-01
      21    -1     0     0   502   501  0.000000000E+00  0.000000000E+00  3.283340683E+02  3.283340683E+02  0.000000000E+00  0.00000E+00  9.000E+00
      21    -1     0     0   511   502  0.000000000E+00  0.000000000E+00 -1.895456972E+02  1.895456972E+02  0.000000000E+00  0.00000E+00  9.000E+00
      25     1     1     2     0     0 -2.295118392E+01  1.995235267E+02  7.283103510E+01  2.475191997E+02  1.250000000E+02  0.00000E+00  9.000E+00
      25     1     1     2     0     0 -1.035864429E+01 -1.895428318E+02  6.010351003E+01  2.350983167E+02  1.250000000E+02  0.00000E+00  9.000E+00
      21     1     1     2   511   501  3.330982821E+01 -9.980694956E+00  5.853825964E+00  3.526224901E+01  8.513246093E-07  0.00000E+00  9.000E+00
#rwgt            1           1   2.7996207302407129E-002           5      482633           0
</event>
<event>
      5   9999  3.79277E-02  1.25171E+02 -1.00000E+00  1.19596E-01
      -3    -1     0     0     0   501  0.000000000E+00  0.000000000E+00  5.814156725E+02  5.814156725E+02  0.000000000E+00  0.00000E+00  9.000E+00
      21    -1     0     0   501   502  0.000000000E+00  0.000000000E+00 -1.790754972E+02  1.790754972E+02  0.000000000E+00  0.00000E+00  9.000E+00
      25     1     1     2     0     0 -1.068944871E+02 -9.047115771E+01  3.819430511E+01  1.915600864E+02  1.250000000E+02  0.00000E+00  9.000E+00
      25     1     1     2     0     0  1.931585733E+02 -2.279412035E-01  5.666967932E+01  2.369530311E+02  1.250000000E+02  0.00000E+00  9.000E+00
      -3     1     1     2     0   502 -8.626408618E+01  9.069909891E+01  3.074761909E+02  3.319780521E+02  0.000000000E+00  0.00000E+00  9.000E+00
#rwgt            1           1   4.6620108963268590E-002           5      482902           0
</event>
<event>
      5   9999  3.79277E-02  4.06105E+01 -1.00000E+00  1.44433E-01
      21    -1     0     0   511   501  0.000000000E+00  0.000000000E+00  5.131907452E+01  5.131907452E+01  0.000000000E+00  0.00000E+00  9.000E+00
      21    -1     0     0   501   502  0.000000000E+00  0.000000000E+00 -8.578573295E+02  8.578573295E+02  0.000000000E+00  0.00000E+00  9.000E+00
      25     1     1     2     0     0  7.601697107E+01  1.605199159E+01 -1.650176657E+02  2.211155271E+02  1.250000000E+02  0.00000E+00  9.000E+00
      25     1     1     2     0     0 -1.073315695E+02 -4.190942053E+01 -6.183737131E+02  6.413170155E+02  1.250000000E+02  0.00000E+00  9.000E+00
      21     1     1     2   511   502  3.131459843E+01  2.585742895E+01 -2.314687624E+01  4.674386148E+01  1.118282261E-06  0.00000E+00  9.000E+00
#rwgt            1           1   4.5449707865649065E-002           5      482973           0
</event>
<event>
      5   9999  3.79277E-02  2.69757E+01 -1.00000E+00  1.56316E-01
      21    -1     0     0   502   501  0.000000000E+00  0.000000000E+00  3.621352857E+02  3.621352857E+02  0.000000000E+00  0.00000E+00  9.000E+00
      21    -1     0     0   512   502  0.000000000E+00  0.000000000E+00 -1.233716633E+02  1.233716633E+02  0.000000000E+00  0.00000E+00  9.000E+00
      25     1     1     2     0     0  6.245886867E+01 -9.558106379E+01  9.754504865E+00  1.695788914E+02  1.250000000E+02  0.00000E+00  9.000E+00
      25     1     1     2     0     0 -3.977697093E+01  8.097906619E+01  2.412557974E+02  2.863025958E+02  1.250000000E+02  0.00000E+00  9.000E+00
      21     1     1     2   512   501 -2.268189774E+01  1.460199760E+01 -1.224667993E+01  2.962546182E+01  3.371747881E-07  0.00000E+00  9.000E+00
#rwgt            1           1   3.9829797846179286E-002           5      483101           0
</event>
<event>
      5   9999  3.79277E-02  8.82288E+01 -1.00000E+00  1.26325E-01
       1    -1     0     0   502     0  0.000000000E+00  0.000000000E+00  2.360634788E+03  2.360634788E+03  0.000000000E+00  0.00000E+00  9.000E+00
      21    -1     0     0   501   502  0.000000000E+00  0.000000000E+00 -8.423785443E+01  8.423785443E+01  0.000000000E+00  0.00000E+00  9.000E+00
      25     1     1     2     0     0  1.114741801E+02 -2.838115071E+01  1.726769080E+02  2.422277794E+02  1.250000000E+02  0.00000E+00  9.000E+00
      25     1     1     2     0     0 -9.345625262E+01 -5.798823729E+01  9.441769304E+01  1.914063938E+02  1.250000000E+02  0.00000E+00  9.000E+00
       1     1     1     2   501     0 -1.801792747E+01  8.636938800E+01  2.009302333E+03  2.011238469E+03  2.157918644E-05  0.00000E+00  9.000E+00
#rwgt            1           1   2.8877833764838469E-002           5      483282           0
</event>
<event>
      5   9999  3.79277E-02  1.16471E+02 -1.00000E+00  1.20921E-01
      21    -1     0     0   502   501  0.000000000E+00  0.000000000E+00  6.321880463E+02  6.321880463E+02  0.000000000E+00  0.00000E+00  9.000E+00
      21    -1     0     0   501   511  0.000000000E+00  0.000000000E+00 -9.499441733E+01  9.499441733E+01  0.000000000E+00  0.00000E+00  9.000E+00
      25     1     1     2     0     0  1.048991359E+02  1.002833480E+02  1.154562209E+02  2.236419405E+02  1.250000000E+02  0.00000E+00  9.000E+00
      25     1     1     2     0     0 -6.962582841E+01  1.071838571E+01  3.124654465E+02  3.438346915E+02  1.250000000E+02  0.00000E+00  9.000E+00
      21     1     1     2   502   511 -3.527330751E+01 -1.110017337E+02  1.092719615E+02  1.597058317E+02  1.348699152E-06  0.00000E+00  9.000E+00
#rwgt            1           1   3.9685379641178083E-002           5      483502           0
</event>
<event>
      5   9999  3.79277E-02  3.24366E+01 -1.00000E+00  1.50721E-01
      21    -1     0     0   512   501  0.000000000E+00  0.000000000E+00  1.846024518E+02  1.846024518E+02  0.000000000E+00  0.00000E+00  9.000E+00
      21    -1     0     0   501   502  0.000000000E+00  0.000000000E+00 -7.016262751E+02  7.016262751E+02  0.000000000E+00  0.00000E+00  9.000E+00
      25     1     1     2     0     0  9.096127162E+01 -6.254049499E+01 -6.189767025E+02  6.410479113E+02  1.250000000E+02  0.00000E+00  9.000E+00
      25     1     1     2     0     0 -1.208075040E+02  7.524222304E+01  9.539734703E+01  2.120884225E+02  1.250000000E+02  0.00000E+00  9.000E+00
      21     1     1     2   512   502  2.984623235E+01 -1.270172805E+01  6.555532111E+00  3.309239312E+01  4.460403188E-07  0.00000E+00  9.000E+00
#rwgt            1           1   4.8279082731864237E-002           5      483619           0
</event>
<event>
      5   9999  3.79277E-02  6.82576E+00 -1.00000E+00  2.17113E-01
      21    -1     0     0   502   501  0.000000000E+00  0.000000000E+00  5.423196406E+02  5.423196406E+02  0.000000000E+00  0.00000E+00  9.000E+00
      21    -1     0     0   511   502  0.000000000E+00  0.000000000E+00 -1.096290045E+02  1.096290045E+02  0.000000000E+00  0.00000E+00  9.000E+00
      25     1     1     2     0     0  2.190965777E+01 -1.751145552E+02  8.160948995E+01  2.311498419E+02  1.250000000E+02  0.00000E+00  9.000E+00
      25     1     1     2     0     0 -1.508403143E+01  1.751565404E+02  3.530143437E+02  4.137045667E+02  1.250000000E+02  0.00000E+00  9.000E+00
      21     1     1     2   511   501 -6.825626336E+00 -4.198513621E-02 -1.933197645E+00  7.094236447E+00  1.074538015E-07  0.00000E+00  9.000E+00
#rwgt            1           1   2.4174013367512417E-002           5      483761           0
</event>
<event>
      5   9999  3.79277E-02  8.05862E+01 -1.00000E+00  1.28196E-01
      21    -1     0     0   502   501  0.000000000E+00  0.000000000E+00  7.105245215E+02  7.105245215E+02  0.000000000E+00  0.00000E+00  9.000E+00
      21    -1     0     0   501   512  0.000000000E+00  0.000000000E+00 -2.765783311E+02  2.765783311E+02  0.000000000E+00  0.00000E+00  9.000E+00
      25     1     1     2     0     0  1.291719455E+01 -9.079762564E+01  6.009339625E+02  6.206107395E+02  1.250000000E+02  0.00000E+00  9.000E+00
      25     1     1     2     0     0  6.736601417E+01  8.381615692E+01  1.686938249E+01  1.657495221E+02  1.250000000E+02  0.00000E+00  9.000E+00
      21     1     1     2   502   512 -8.028320871E+01  6.981468719E+00 -1.838571546E+02  2.007425909E+02  2.697398305E-06  0.00000E+00  9.000E+00
#rwgt            1           1   4.8693197908375771E-002           5      484091           0
</event>
<event>
      5   9999  3.79277E-02  6.33301E+01 -1.00000E+00  1.33462E-01
      21    -1     0     0   502   501  0.000000000E+00  0.000000000E+00  2.273646113E+02  2.273646113E+02  0.000000000E+00  0.00000E+00  9.000E+00
      21    -1     0     0   511   502  0.000000000E+00  0.000000000E+00 -1.069312826E+03  1.069312826E+03  0.000000000E+00  0.00000E+00  9.000E+00
      25     1     1     2     0     0 -1.005285004E+02  2.295979301E+02  5.674924183E+01  2.857738010E+02  1.250000000E+02  0.00000E+00  9.000E+00
      25     1     1     2     0     0  3.855440055E+01 -2.426331437E+02 -2.944251707E+02  4.033217889E+02  1.250000000E+02  0.00000E+00  9.000E+00
      21     1     1     2   511   501  6.197409983E+01  1.303521361E+01 -6.042722853E+02  6.075818469E+02  1.078959322E-05  0.00000E+00  9.000E+00
#rwgt            1           1   4.2653332507470276E-002           5      484181           0
</event>
<event>
      5   9999  3.79277E-02  7.96659E+00 -1.00000E+00  2.07908E-01
      21    -1     0     0   502   501  0.000000000E+00  0.000000000E+00  1.643430642E+02  1.643430642E+02  0.000000000E+00  0.00000E+00  9.000E+00
      21    -1     0     0   501   512  0.000000000E+00  0.000000000E+00 -3.333494773E+02  3.333494773E+02  0.000000000E+00  0.00000E+00  9.000E+00
      25     1     1     2     0     0  1.442259818E+02  7.137007088E+01 -1.893812231E+02  2.781817185E+02  1.250000000E+02  0.00000E+00  9.000E+00
      25     1     1     2     0     0 -1.421372970E+02 -6.368215857E+01  3.509933853E+01  2.027693076E+02  1.250000000E+02  0.00000E+00  9.000E+00
      21     1     1     2   502   512 -2.088684804E+00 -7.687912313E+00 -1.472452845E+01  1.674151540E+01  1.685873940E-07  0.00000E+00  9.000E+00
#rwgt            1           1   3.1557271533520552E-002           5      484360           0
</event>
<event>
      5   9999  3.79277E-02  7.44707E+01 -1.00000E+00  1.29873E-01
      21    -1     0     0   502   501  0.000000000E+00  0.000000000E+00  1.333313390E+03  1.333313390E+03  0.000000000E+00  0.00000E+00  9.000E+00
      21    -1     0     0   511   502  0.000000000E+00  0.000000000E+00 -4.434184495E+01  4.434184495E+01  0.000000000E+00  0.00000E+00  9.000E+00
      25     1     1     2     0     0 -8.933105560E+01 -1.174813392E+02  4.563980641E+02  4.956874978E+02  1.250000000E+02  0.00000E+00  9.000E+00
      25     1     1     2     0     0  1.633606461E+01  1.027296348E+02  7.627181596E+02  7.798616774E+02  1.250000000E+02  0.00000E+00  9.000E+00
      21     1     1     2   511   501  7.299499098E+01  1.475170443E+01  6.985532089E+01  1.021060593E+02  9.536743164E-07  0.00000E+00  9.000E+00
#rwgt            1           1   3.9528566410414051E-002           5      484660           0
</event>
<event>
      5   9999  3.79277E-02  6.94876E+01 -1.00000E+00  1.31382E-01
      21    -1     0     0   502   501  0.000000000E+00  0.000000000E+00  2.130090580E+02  2.130090580E+02  0.000000000E+00  0.00000E+00  9.000E+00
      21    -1     0     0   501   512  0.000000000E+00  0.000000000E+00 -2.495071774E+02  2.495071774E+02  0.000000000E+00  0.00000E+00  9.000E+00
      25     1     1     2     0     0 -1.773774253E+01  1.172546915E+02  1.185514747E+01  1.727102623E+02  1.250000000E+02  0.00000E+00  9.000E+00
      25     1     1     2     0     0 -2.417967012E+01 -1.726754111E+02 -2.270446630E+01  2.157358265E+02  1.250000000E+02  0.00000E+00  9.000E+00
      21     1     1     2   502   512  4.191741265E+01  5.542071965E+01 -2.564880058E+01  7.407014663E+01  6.743495762E-07  0.00000E+00  9.000E+00
#rwgt            1           1   4.0905035543273779E-002           5      484766           0
</event>
<event>
      5   9999  3.79277E-02  7.60427E+01 -1.00000E+00  1.29425E-01
      21    -1     0     0   502   501  0.000000000E+00  0.000000000E+00  7.383677808E+02  7.383677808E+02  0.000000000E+00  0.00000E+00  9.000E+00
      21    -1     0     0   501   511  0.000000000E+00  0.000000000E+00 -1.522892730E+02  1.522892730E+02  0.000000000E+00  0.00000E+00  9.000E+00
      25     1     1     2     0     0 -8.524438256E+01 -1.118587288E+02  5.482496611E+02  5.796392593E+02  1.250000000E+02  0.00000E+00  9.000E+00
      25     1     1     2     0     0  1.612700348E+02  1.102485291E+02  3.775599826E+01  2.349750576E+02  1.250000000E+02  0.00000E+00  9.000E+00
      21     1     1     2   502   511 -7.602565224E+01  1.610199713E+00  7.284846105E-02  7.604273699E+01  7.675459840E-07  0.00000E+00  9.000E+00
#rwgt            1           1   3.4373352344868317E-002           5      484853           0
</event>
<event>
      5   9999  3.79277E-02  1.68030E+01 -1.00000E+00  1.72862E-01
      21    -1     0     0   502   501  0.000000000E+00  0.000000000E+00  1.122178748E+03  1.122178748E+03  0.000000000E+00  0.00000E+00  9.000E+00
      21    -1     0     0   501   512  0.000000000E+00  0.000000000E+00 -7.826405022E+01  7.826405022E+01  0.000000000E+00  0.00000E+00  9.000E+00
      25     1     1     2     0     0  1.515955390E+02  2.041857385E+02  3.752685456E+02  4.702387740E+02  1.250000000E+02  0.00000E+00  9.000E+00
      25     1     1     2     0     0 -1.381902769E+02 -1.940546631E+02  6.564536625E+02  7.094435678E+02  1.250000000E+02  0.00000E+00  9.000E+00
      21     1     1     2   502   512 -1.340526214E+01 -1.013107541E+01  1.219248949E+01  2.076045621E+01  2.384185791E-07  0.00000E+00  9.000E+00
#rwgt            1           1   2.6659610977030762E-002           5      484953           0
</event>
<event>
      5   9999  3.79277E-02  3.87522E+01 -1.00000E+00  1.45699E-01
      21    -1     0     0   502   501  0.000000000E+00  0.000000000E+00  6.676636462E+02  6.676636462E+02  0.000000000E+00  0.00000E+00  9.000E+00
      21    -1     0     0   501   511  0.000000000E+00  0.000000000E+00 -1.715426710E+02  1.715426710E+02  0.000000000E+00  0.00000E+00  9.000E+00
      25     1     1     2     0     0  1.605288887E+02 -3.066933638E+01  4.138753607E+02  4.621990334E+02  1.250000000E+02  0.00000E+00  9.000E+00
      25     1     1     2     0     0 -1.980109406E+02  4.050954438E+01  1.624977186E+02  2.878886318E+02  1.250000000E+02  0.00000E+00  9.000E+00
      21     1     1     2   502   511  3.748205191E+01 -9.840208004E+00 -8.025210415E+01  8.911865198E+01  1.348699152E-06  0.00000E+00  9.000E+00
#rwgt            1           1   4.0668877017285686E-002           5      485236           0
</event>
<event>
      5   9999  3.79277E-02  8.20068E+00 -1.00000E+00  2.06274E-01
      21    -1     0     0   512   501  0.000000000E+00  0.000000000E+00  1.809361904E+02  1.809361904E+02  0.000000000E+00  0.00000E+00  9.000E+00
      21    -1     0     0   501   502  0.000000000E+00  0.000000000E+00 -2.745360803E+02  2.745360803E+02  0.000000000E+00  0.00000E+00  9.000E+00
      25     1     1     2     0     0  1.349918605E+02  4.282319259E+01  6.860670520E+01  2.009689235E+02  1.250000000E+02  0.00000E+00  9.000E+00
      25     1     1     2     0     0 -1.272716985E+02 -4.005729243E+01 -1.645479305E+02  2.459749852E+02  1.250000000E+02  0.00000E+00  9.000E+00
      21     1     1     2   512   502 -7.720162026E+00 -2.765900158E+00  2.341335366E+00  8.528361900E+00  1.812804499E-07  0.00000E+00  9.000E+00
#rwgt            1           1   4.3665299588308629E-002           5      485422           0
</event>
<event>
      5   9999 -5.23245E-02  7.84333E+01 -1.00000E+00  1.28767E-01
      21    -1     0     0   502   511  0.000000000E+00  0.000000000E+00  9.733975828E+02  9.733975828E+02  0.000000000E+00  0.00000E+00  9.000E+00
      21    -1     0     0   501   502  0.000000000E+00  0.000000000E+00 -1.013532820E+02  1.013532820E+02  0.000000000E+00  0.00000E+00  9.000E+00
      25     1     1     2     0     0 -2.619330126E+01  4.017162842E+01  1.870861721E+02  2.300566985E+02  1.250000000E+02  0.00000E+00  9.000E+00
      25     1     1     2     0     0  1.046144689E+02 -4.155132059E+01  1.359141980E+01  1.687614471E+02  1.250000000E+02  0.00000E+00  9.000E+00
      21     1     1     2   501   511 -7.842116760E+01  1.379692173E+00  6.713667089E+02  6.759327192E+02  1.078959322E-05  0.00000E+00  9.000E+00
#rwgt            1           1 -0.17264351187299146                5      485795           0
</event>
<event>
      5   9999  3.79277E-02  1.00536E+01 -1.00000E+00  1.95489E-01
       2    -1     0     0   502     0  0.000000000E+00  0.000000000E+00  1.805092908E+03  1.805092908E+03  0.000000000E+00  0.00000E+00  9.000E+00
      21    -1     0     0   501   502  0.000000000E+00  0.000000000E+00 -2.056441932E+02  2.056441932E+02  0.000000000E+00  0.00000E+00  9.000E+00
      25     1     1     2     0     0 -6.954198187E-01  1.320223902E+02 -1.061712782E+02  2.105415290E+02  1.250000000E+02  0.00000E+00  9.000E+00
      25     1     1     2     0     0  7.061751670E+00 -1.242413903E+02  1.172592874E+02  2.118030498E+02  1.250000000E+02  0.00000E+00  9.000E+00
       2     1     1     2   501     0 -6.366331852E+00 -7.780999935E+00  1.588360706E+03  1.588392522E+03  3.051757812E-05  0.00000E+00  9.000E+00
#rwgt            1           1   5.1273713583679305E-002           5      485914           0
</event>
<event>
      5   9999  3.79277E-02  1.53375E+02 -1.00000E+00  1.16012E-01
      21    -1     0     0   502   501  0.000000000E+00  0.000000000E+00  7.252034504E+02  7.252034504E+02  0.000000000E+00  0.00000E+00  9.000E+00
      21    -1     0     0   501   511  0.000000000E+00  0.000000000E+00 -2.464736119E+02  2.464736119E+02  0.000000000E+00  0.00000E+00  9.000E+00
      25     1     1     2     0     0  2.043259646E+02  2.593946425E+02  4.246987436E+02  5.522940369E+02  1.250000000E+02  0.00000E+00  9.000E+00
      25     1     1     2     0     0 -2.038164850E+02 -1.060208806E+02  2.022814715E+01  2.623275903E+02  1.250000000E+02  0.00000E+00  9.000E+00
      21     1     1     2   502   511 -5.094795516E-01 -1.533737619E+02  3.380294773E+01  1.570554351E+02  3.693564745E-06  0.00000E+00  9.000E+00
#rwgt            1           1   4.3551076525582801E-002           5      486164           0
</event>
<event>
      5   9999  3.79277E-02  6.76759E+01 -1.00000E+00  1.31968E-01
      21    -1     0     0   502   512  0.000000000E+00  0.000000000E+00  3.094507228E+02  3.094507228E+02  0.000000000E+00  0.00000E+00  9.000E+00
      21    -1     0     0   501   502  0.000000000E+00  0.000000000E+00 -1.340156768E+02  1.340156768E+02  0.000000000E+00  0.00000E+00  9.000E+00
      25     1     1     2     0     0  7.094513769E+01 -2.551177373E+01  3.312911324E+01  1.496883473E+02  1.250000000E+02  0.00000E+00  9.000E+00
      25     1     1     2     0     0 -1.385147081E+02  2.930368989E+01  1.124714268E+02  2.198177710E+02  1.250000000E+02  0.00000E+00  9.000E+00
      21     1     1     2   501   512  6.756957041E+01 -3.791916155E+00  2.983450602E+01  7.396028139E+01  1.118282261E-06  0.00000E+00  9.000E+00
#rwgt            1           1   3.6991234677022686E-002           5      486299           0
</event>
<event>
      5   9999  3.79277E-02  3.71893E+01 -1.00000E+00  1.46830E-01
      21    -1     0     0   502   501  0.000000000E+00  0.000000000E+00  2.740166823E+02  2.740166823E+02  0.000000000E+00  0.00000E+00  9.000E+00
      21    -1     0     0   501   511  0.000000000E+00  0.000000000E+00 -1.913888839E+02  1.913888839E+02  0.000000000E+00  0.00000E+00  9.000E+00
      25     1     1     2     0     0 -2.760772682E+01  2.244114736E+01 -6.919774041E+01  1.472383067E+02  1.250000000E+02  0.00000E+00  9.000E+00
      25     1     1     2     0     0  5.298054492E+01  4.748262955E+00  2.094124647E+02  2.496158339E+02  1.250000000E+02  0.00000E+00  9.000E+00
      21     1     1     2   502   511 -2.537281810E+01 -2.718941032E+01 -5.758692581E+01  6.855142564E+01  9.536743164E-07  0.00000E+00  9.000E+00
#rwgt            1           1   4.1617499673153133E-002           5      486363           0
</event>
<event>
      5   9999  3.79277E-02  4.42249E+01 -1.00000E+00  1.42187E-01
      21    -1     0     0   502   501  0.000000000E+00  0.000000000E+00  9.987585832E+01  9.987585832E+01  0.000000000E+00  0.00000E+00  9.000E+00
      21    -1     0     0   501   512  0.000000000E+00  0.000000000E+00 -4.908063597E+02  4.908063597E+02  0.000000000E+00  0.00000E+00  9.000E+00
      25     1     1     2     0     0 -3.465683933E+00 -2.075288620E+01 -3.443311260E+02  3.669218140E+02  1.250000000E+02  0.00000E+00  9.000E+00
      25     1     1     2     0     0  4.647714290E+01  3.104146404E+01  2.540147872E+01  1.392620997E+02  1.250000000E+02  0.00000E+00  9.000E+00
      21     1     1     2   502   512 -4.301145897E+01 -1.028857784E+01 -7.200085413E+01  8.449830432E+01  9.536743164E-07  0.00000E+00  9.000E+00
#rwgt            1           1   7.6808255057415793E-003           5      486425           0
</event>
<event>
      5   9999  3.79277E-02  6.73164E+01 -1.00000E+00  1.32086E-01
      21    -1     0     0   502   511  0.000000000E+00  0.000000000E+00  2.856959510E+02  2.856959510E+02  0.000000000E+00  0.00000E+00  9.000E+00
      21    -1     0     0   501   502  0.000000000E+00  0.000000000E+00 -4.729081946E+02  4.729081946E+02  0.000000000E+00  0.00000E+00  9.000E+00
      25     1     1     2     0     0 -4.466669068E+01 -1.411083996E+02 -1.430431557E+02  2.408174373E+02  1.250000000E+02  0.00000E+00  9.000E+00
      25     1     1     2     0     0  1.047938608E+02  1.713776148E+02 -2.239741453E+02  3.257935818E+02  1.250000000E+02  0.00000E+00  9.000E+00
      21     1     1     2   501   511 -6.012717016E+01 -3.026921529E+01  1.798050575E+02  1.919931266E+02  3.814697266E-06  0.00000E+00  9.000E+00
#rwgt            1           1   4.2787410179737848E-002           5      486641           0
</event>
<event>
      5   9999  3.79277E-02  2.49661E+01 -1.00000E+00  1.58795E-01
      21    -1     0     0   502   501  0.000000000E+00  0.000000000E+00  1.983643782E+03  1.983643782E+03  0.000000000E+00  0.00000E+00  9.000E+00
      21    -1     0     0   512   502  0.000000000E+00  0.000000000E+00 -3.011421121E+01  3.011421121E+01  0.000000000E+00  0.00000E+00  9.000E+00
      25     1     1     2     0     0  1.012272256E+02 -1.522535709E+02  6.844385745E+02  7.193811669E+02  1.250000000E+02  0.00000E+00  9.000E+00
      25     1     1     2     0     0 -8.249937928E+01  1.687633630E+02  1.197111262E+03  1.218190295E+03  1.250000000E+02  0.00000E+00  9.000E+00
      21     1     1     2   512   501 -1.872784634E+01 -1.650979202E+01  7.197973431E+01  7.618653170E+01  0.000000000E+00  0.00000E+00  9.000E+00
#rwgt            1           1   9.5218689135198015E-002           5      486714           0
</event>
<event>
      5   9999  3.79277E-02  3.55428E+01 -1.00000E+00  1.48096E-01
      21    -1     0     0   502   511  0.000000000E+00  0.000000000E+00  3.849960671E+02  3.849960671E+02  0.000000000E+00  0.00000E+00  9.000E+00
      21    -1     0     0   501   502  0.000000000E+00  0.000000000E+00 -1.142058561E+02  1.142058561E+02  0.000000000E+00  0.00000E+00  9.000E+00
      25     1     1     2     0     0  4.201600512E+01 -1.782373881E+01  1.325032302E+02  1.877901391E+02  1.250000000E+02  0.00000E+00  9.000E+00
      25     1     1     2     0     0 -5.283017789E+01  5.168147428E+01 -2.231997240E+01  1.469189697E+02  1.250000000E+02  0.00000E+00  9.000E+00
      21     1     1     2   501   511  1.081417277E+01 -3.385773547E+01  1.606069532E+02  1.644928144E+02  0.000000000E+00  0.00000E+00  9.000E+00
#rwgt            1           1   3.7109012383275977E-002           5      486904           0
</event>
<event>
      5   9999  3.79277E-02  4.68392E+01 -1.00000E+00  1.40713E-01
      21    -1     0     0   502   512  0.000000000E+00  0.000000000E+00  2.077986819E+03  2.077986819E+03  0.000000000E+00  0.00000E+00  9.000E+00
      21    -1     0     0   501   502  0.000000000E+00  0.000000000E+00 -2.729314252E+01  2.729314252E+01  0.000000000E+00  0.00000E+00  9.000E+00
      25     1     1     2     0     0  1.119290491E+02 -1.028159076E+02  4.566785427E+02  4.972720727E+02  1.250000000E+02  0.00000E+00  9.000E+00
      25     1     1     2     0     0 -8.675953954E+01  6.331393359E+01  1.230375780E+03  1.241364343E+03  1.250000000E+02  0.00000E+00  9.000E+00
      21     1     1     2   501   512 -2.516950956E+01  3.950197399E+01  3.636393542E+02  3.666435464E+02  0.000000000E+00  0.00000E+00  9.000E+00
#rwgt            1           1   4.4409556840067921E-002           5      487395           0
</event>
<event>
      5   9999  3.79277E-02  2.37392E+01 -1.00000E+00  1.60453E-01
      21    -1     0     0   502   501  0.000000000E+00  0.000000000E+00  2.333855098E+02  2.333855098E+02  0.000000000E+00  0.00000E+00  9.000E+00
      21    -1     0     0   511   502  0.000000000E+00  0.000000000E+00 -3.214638145E+02  3.214638145E+02  0.000000000E+00  0.00000E+00  9.000E+00
      25     1     1     2     0     0  3.716619578E+01 -1.119944424E+00 -1.093539300E+02  1.701936027E+02  1.250000000E+02  0.00000E+00  9.000E+00
      25     1     1     2     0     0 -4.544786699E+01 -2.112786090E+01  1.796433353E+02  2.245186474E+02  1.250000000E+02  0.00000E+00  9.000E+00
      21     1     1     2   511   501  8.281671213E+00  2.224780533E+01 -1.583677101E+02  1.601370741E+02  3.303624740E-06  0.00000E+00  9.000E+00
#rwgt            1           1   2.2289647689673325E-002           5      487553           0
</event>
<event>
      5   9999  3.79277E-02  1.60957E+02 -1.00000E+00  1.15193E-01
      -5    -1     0     0     0   501  0.000000000E+00  0.000000000E+00  3.109516161E+02  3.109516161E+02  0.000000000E+00  0.00000E+00  9.000E+00
      21    -1     0     0   501   502  0.000000000E+00  0.000000000E+00 -2.938526276E+02  2.938526276E+02  0.000000000E+00  0.00000E+00  9.000E+00
      25     1     1     2     0     0 -4.393636290E+01 -2.040076188E+02 -1.148654879E+02  2.690141127E+02  1.250000000E+02  0.00000E+00  9.000E+00
      25     1     1     2     0     0 -3.422138296E+01  6.330016580E+01  8.791436657E+01  1.689140311E+02  1.250000000E+02  0.00000E+00  9.000E+00
      -5     1     1     2     0   502  7.815774586E+01  1.407074530E+02  4.405010983E+01  1.668760999E+02  3.015782986E-06  0.00000E+00  9.000E+00
#rwgt            1           1   3.2408584423190917E-002           5      487651           0
</event>
<event>
      5   9999  3.79277E-02  2.22771E+01 -1.00000E+00  1.62596E-01
      21    -1     0     0   502   501  0.000000000E+00  0.000000000E+00  1.229567502E+03  1.229567502E+03  0.000000000E+00  0.00000E+00  9.000E+00
      21    -1     0     0   501   511  0.000000000E+00  0.000000000E+00 -3.793861663E+01  3.793861663E+01  0.000000000E+00  0.00000E+00  9.000E+00
      25     1     1     2     0     0  4.460493919E+01 -8.642027129E+01  9.778764845E+02  9.906187373E+02  1.250000000E+02  0.00000E+00  9.000E+00
      25     1     1     2     0     0 -4.532785097E+01  6.415491047E+01  2.057087358E+02  2.532025881E+02  1.250000000E+02  0.00000E+00  9.000E+00
      21     1     1     2   502   511  7.229117809E-01  2.226536082E+01  8.043665458E+00  2.368479360E+01  7.996802250E-07  0.00000E+00  9.000E+00
#rwgt            1           1   4.3580356115528809E-002           5      487878           0
</event>
<event>
      5   9999  3.79277E-02  7.32769E+01 -1.00000E+00  1.30222E-01
      21    -1     0     0   502   501  0.000000000E+00  0.000000000E+00  1.722810326E+03  1.722810326E+03  0.000000000E+00  0.00000E+00  9.000E+00
      21    -1     0     0   501   512  0.000000000E+00  0.000000000E+00 -2.147903683E+02  2.147903683E+02  0.000000000E+00  0.00000E+00  9.000E+00
      25     1     1     2     0     0  7.323792454E+01  2.856620680E+02  5.546104897E+02  6.404564044E+02  1.250000000E+02  0.00000E+00  9.000E+00
      25     1     1     2     0     0 -6.965937944E+01 -2.124726260E+02  1.102045752E+03  1.131426924E+03  1.250000000E+02  0.00000E+00  9.000E+00
      21     1     1     2   502   512 -3.578545101E+00 -7.318944193E+01 -1.486362838E+02  1.657173656E+02  1.907348633E-06  0.00000E+00  9.000E+00
#rwgt            1           1   4.4091999948466000E-002           5      488026           0
</event>
<event>
      5   9999  3.79277E-02  1.76984E+01 -1.00000E+00  1.70873E-01
      21    -1     0     0   511   501  0.000000000E+00  0.000000000E+00  2.878172058E+02  2.878172058E+02  0.000000000E+00  0.00000E+00  9.000E+00
      21    -1     0     0   501   502  0.000000000E+00  0.000000000E+00 -4.045730795E+02  4.045730795E+02  0.000000000E+00  0.00000E+00  9.000E+00
      25     1     1     2     0     0 -6.258044445E+01 -2.364801117E+02 -1.067756057E+02  2.947290030E+02  1.250000000E+02  0.00000E+00  9.000E+00
      25     1     1     2     0     0  6.676662282E+01  2.192839445E+02 -1.192022650E+02  2.870146516E+02  1.250000000E+02  0.00000E+00  9.000E+00
      21     1     1     2   511   502 -4.186178373E+00  1.719616723E+01  1.092219970E+02  1.106466307E+02  1.907348633E-06  0.00000E+00  9.000E+00
#rwgt            1           1   4.4373376549786431E-002           5      488208           0
</event>
<event>
      5   9999 -3.79277E-02  1.28634E+02 -1.00000E+00  1.19101E-01
      21    -1     0     0   512   501  0.000000000E+00  0.000000000E+00  2.702592231E+02  2.702592231E+02  0.000000000E+00  0.00000E+00  9.000E+00
      21    -1     0     0   501   502  0.000000000E+00  0.000000000E+00 -4.566899092E+02  4.566899092E+02  0.000000000E+00  0.00000E+00  9.000E+00
      25     1     1     2     0     0  7.603075427E+01  2.386315349E+02 -5.536933492E+01  2.853356765E+02  1.250000000E+02  0.00000E+00  9.000E+00
      25     1     1     2     0     0  2.967241759E+01 -1.653277204E+02 -2.051825309E+02  2.931528245E+02  1.250000000E+02  0.00000E+00  9.000E+00
      21     1     1     2   512   502 -1.057031719E+02 -7.330381449E+01  7.412117969E+01  1.484606313E+02  1.348699152E-06  0.00000E+00  9.000E+00
#rwgt            1           1 -0.21420091257696952                5      488328           0
</event>
<event>
      5   9999  3.79277E-02  5.13596E+01 -1.00000E+00  1.38414E-01
       2    -1     0     0   502     0  0.000000000E+00  0.000000000E+00  2.155982301E+02  2.155982301E+02  0.000000000E+00  0.00000E+00  9.000E+00
      21    -1     0     0   501   502  0.000000000E+00  0.000000000E+00 -1.390177920E+03  1.390177920E+03  0.000000000E+00  0.00000E+00  9.000E+00
      25     1     1     2     0     0 -9.104542424E+01  3.441656791E+02 -4.439295519E+02  5.826128483E+02  1.250000000E+02  0.00000E+00  9.000E+00
      25     1     1     2     0     0  7.050925605E+01 -3.912408526E+02 -8.201624172E+02  9.199632332E+02  1.250000000E+02  0.00000E+00  9.000E+00
       2     1     1     2   501     0  2.053616819E+01  4.707517348E+01  8.951227884E+01  1.032000689E+02  9.536743164E-07  0.00000E+00  9.000E+00
#rwgt            1           1   4.6081626552051801E-002           5      488459           0
</event>
<event>
      5   9999  3.79277E-02  1.70384E+01 -1.00000E+00  1.72324E-01
      21    -1     0     0   502   501  0.000000000E+00  0.000000000E+00  9.536646503E+02  9.536646503E+02  0.000000000E+00  0.00000E+00  9.000E+00
      21    -1     0     0   501   511  0.000000000E+00  0.000000000E+00 -6.327821375E+02  6.327821375E+02  0.000000000E+00  0.00000E+00  9.000E+00
      25     1     1     2     0     0 -2.184172810E+02 -4.851483303E+02  4.049315667E+02  6.801981951E+02  1.250000000E+02  0.00000E+00  9.000E+00
      25     1     1     2     0     0  2.353946472E+02  4.865889018E+02  2.235731048E+02  5.981549402E+02  1.250000000E+02  0.00000E+00  9.000E+00
      21     1     1     2   502   511 -1.697736617E+01 -1.440571557E+00 -3.076221586E+02  3.080936524E+02  0.000000000E+00  0.00000E+00  9.000E+00
#rwgt            1           1   5.8936266336724226E-002           5      488569           0
</event>
<event>
      5   9999  3.79277E-02  7.81909E+01 -1.00000E+00  1.28832E-01
       4    -1     0     0   502     0  0.000000000E+00  0.000000000E+00  4.547158804E+02  4.547158804E+02  0.000000000E+00  0.00000E+00  9.000E+00
      21    -1     0     0   501   502  0.000000000E+00  0.000000000E+00 -8.877305528E+02  8.877305528E+02  0.000000000E+00  0.00000E+00  9.000E+00
      25     1     1     2     0     0  2.126528912E+02 -1.633591937E+02 -6.065503653E+02  6.748598550E+02  1.250000000E+02  0.00000E+00  9.000E+00
      25     1     1     2     0     0 -1.478513374E+02  1.196032950E+02 -1.895517471E+02  2.961753382E+02  1.250000000E+02  0.00000E+00  9.000E+00
       4     1     1     2   501     0 -6.480155377E+01  4.375589872E+01  3.630874400E+02  3.714112399E+02  0.000000000E+00  0.00000E+00  9.000E+00
#rwgt            1           1   4.8681065786369208E-002           5      488797           0
</event>
<event>
      5   9999  3.79277E-02  1.36343E+02 -1.00000E+00  1.18061E-01
      21    -1     0     0   511   501  0.000000000E+00  0.000000000E+00  1.458007190E+02  1.458007190E+02  0.000000000E+00  0.00000E+00  9.000E+00
      21    -1     0     0   501   502  0.000000000E+00  0.000000000E+00 -1.553038559E+03  1.553038559E+03  0.000000000E+00  0.00000E+00  9.000E+00
      25     1     1     2     0     0 -1.640500155E+02  3.265487871E+01 -1.262487122E+03  1.279639591E+03  1.250000000E+02  0.00000E+00  9.000E+00
      25     1     1     2     0     0  6.885250022E+01 -1.302610062E+02 -1.944080083E+02  2.740950022E+02  1.250000000E+02  0.00000E+00  9.000E+00
      21     1     1     2   511   502  9.519751529E+01  9.760612749E+01  4.965729068E+01  1.451046848E+02  3.371747881E-06  0.00000E+00  9.000E+00
#rwgt            1           1   1.9852033602632595E-002           5      489006           0
</event>
<event>
      5   9999  3.79277E-02  1.07303E+02 -1.00000E+00  1.22467E-01
      21    -1     0     0   502   512  0.000000000E+00  0.000000000E+00  6.253585661E+01  6.253585661E+01  0.000000000E+00  0.00000E+00  9.000E+00
      21    -1     0     0   501   502  0.000000000E+00  0.000000000E+00 -2.266445744E+03  2.266445744E+03  0.000000000E+00  0.00000E+00  9.000E+00
      25     1     1     2     0     0 -1.015632736E+02 -7.584856261E+01 -5.980530180E+02  6.239875923E+02  1.250000000E+02  0.00000E+00  9.000E+00
      25     1     1     2     0     0  2.088067383E+02  7.940993670E+01 -1.571663931E+03  1.592375177E+03  1.250000000E+02  0.00000E+00  9.000E+00
      21     1     1     2   501   512 -1.072434647E+02 -3.561374095E+00 -3.419293812E+01  1.126188311E+02  3.234066955E-06  0.00000E+00  9.000E+00
#rwgt            1           1  0.21845522662328981                5      489175           0
</event>
<event>
      5   9999  3.79277E-02  5.83271E+01 -1.00000E+00  1.35363E-01
      21    -1     0     0   502   501  0.000000000E+00  0.000000000E+00  1.706281509E+02  1.706281509E+02  0.000000000E+00  0.00000E+00  9.000E+00
      21    -1     0     0   511   502  0.000000000E+00  0.000000000E+00 -4.145482640E+02  4.145482640E+02  0.000000000E+00  0.00000E+00  9.000E+00
      25     1     1     2     0     0  5.447377839E+01 -9.970970591E+00  8.109128602E+01  1.589578858E+02  1.250000000E+02  0.00000E+00  9.000E+00
      25     1     1     2     0     0 -9.603414563E+01  5.089507372E+01 -9.937752432E+01  1.931676940E+02  1.250000000E+02  0.00000E+00  9.000E+00
      21     1     1     2   511   501  4.156036724E+01 -4.092410313E+01 -2.256338748E+02  2.330508352E+02  2.697398305E-06  0.00000E+00  9.000E+00
#rwgt            1           1   1.2163657048171357E-002           5      489244           0
</event>
<event>
      5   9999  3.79277E-02  3.01499E+01 -1.00000E+00  1.52890E-01
      21    -1     0     0   502   501  0.000000000E+00  0.000000000E+00  6.919332988E+02  6.919332988E+02  0.000000000E+00  0.00000E+00  9.000E+00
      21    -1     0     0   501   512  0.000000000E+00  0.000000000E+00 -8.283787951E+01  8.283787951E+01  0.000000000E+00  0.00000E+00  9.000E+00
      25     1     1     2     0     0  3.090489338E+01  1.715003431E+02  3.222692328E+02  3.871045576E+02  1.250000000E+02  0.00000E+00  9.000E+00
      25     1     1     2     0     0 -3.662660158E+00 -1.844185285E+02  2.779504668E+02  3.562373798E+02  1.250000000E+02  0.00000E+00  9.000E+00
      21     1     1     2   502   512 -2.724223322E+01  1.291818542E+01  8.875719668E+00  3.142924092E+01  7.251217997E-07  0.00000E+00  9.000E+00
#rwgt            1           1   6.6044837294620143E-002           5      489457           0
</event>
<event>
      5   9999  3.79277E-02  4.52154E+01 -1.00000E+00  1.41615E-01
      21    -1     0     0   511   501  0.000000000E+00  0.000000000E+00  2.437982590E+01  2.437982590E+01  0.000000000E+00  0.00000E+00  9.000E+00
      21    -1     0     0   501   502  0.000000000E+00  0.000000000E+00 -3.261172589E+03  3.261172589E+03  0.000000000E+00  0.00000E+00  9.000E+00
      25     1     1     2     0     0 -2.011243071E+02 -1.519941232E+01 -1.702564177E+03  1.719020589E+03  1.250000000E+02  0.00000E+00  9.000E+00
      25     1     1     2     0     0  2.391006892E+02 -9.340904489E+00 -1.359687728E+03  1.386229457E+03  1.250000000E+02  0.00000E+00  9.000E+00
      21     1     1     2   511   502 -3.797638209E+01  2.454031681E+01 -1.745408589E+02  1.803023688E+02  0.000000000E+00  0.00000E+00  9.000E+00
#rwgt            1           1   2.0597397364073053E-002           5      489563           0
</event>
<event>
      5   9999  3.79277E-02  1.06846E+02 -1.00000E+00  1.22548E-01
      21    -1     0     0   502   512  0.000000000E+00  0.000000000E+00  6.814019142E+02  6.814019142E+02  0.000000000E+00  0.00000E+00  9.000E+00
      21    -1     0     0   501   502  0.000000000E+00  0.000000000E+00 -2.593393151E+02  2.593393151E+02  0.000000000E+00  0.00000E+00  9.000E+00
      25     1     1     2     0     0 -2.793761810E+01  1.208732010E+02 -1.353932002E+02  2.221422065E+02  1.250000000E+02  0.00000E+00  9.000E+00
      25     1     1     2     0     0  9.655343546E+01 -3.897096946E+01  1.238568062E+01  1.631554702E+02  1.250000000E+02  0.00000E+00  9.000E+00
      21     1     1     2   501   512 -6.861581737E+01 -8.190223155E+01  5.450701187E+02  5.554435527E+02  7.629394531E-06  0.00000E+00  9.000E+00
#rwgt            2          11   3.7451972800158794E-003           5      490301           0
</event>
<event>
      5   9999 -3.79277E-02  6.66895E+01 -1.00000E+00  1.32295E-01
      21    -1     0     0   502   511  0.000000000E+00  0.000000000E+00  1.600182162E+03  1.600182162E+03  0.000000000E+00  0.00000E+00  9.000E+00
      21    -1     0     0   501   502  0.000000000E+00  0.000000000E+00 -3.797674288E+01  3.797674288E+01  0.000000000E+00  0.00000E+00  9.000E+00
      25     1     1     2     0     0 -3.668709894E+01  1.237932710E+02  3.418060849E+02  3.861698031E+02  1.250000000E+02  0.00000E+00  9.000E+00
      25     1     1     2     0     0 -9.805980684E+00 -1.716042138E+02  9.508319291E+02  9.742948839E+02  1.250000000E+02  0.00000E+00  9.000E+00
      21     1     1     2   501   511  4.649307963E+01  4.781094276E+01  2.695674052E+02  2.776942179E+02  3.814697266E-06  0.00000E+00  9.000E+00
#rwgt            1           1 -0.10173880765265104                5      490321           0
</event>
<event>
      5   9999  3.79277E-02  2.36732E+01 -1.00000E+00  1.60546E-01
      21    -1     0     0   502   512  0.000000000E+00  0.000000000E+00  6.962933544E+02  6.962933544E+02  0.000000000E+00  0.00000E+00  9.000E+00
      21    -1     0     0   501   502  0.000000000E+00  0.000000000E+00 -3.834118661E+02  3.834118661E+02  0.000000000E+00  0.00000E+00  9.000E+00
      25     1     1     2     0     0  3.605792513E+00 -4.808500506E+02  1.851275185E+02  5.302140803E+02  1.250000000E+02  0.00000E+00  9.000E+00
      25     1     1     2     0     0  1.777782959E+01  4.910067755E+02  1.073106318E+02  5.182125785E+02  1.250000000E+02  0.00000E+00  9.000E+00
      21     1     1     2   501   512 -2.138362210E+01 -1.015672492E+01  2.044333802E+01  3.127856175E+01  4.129530925E-07  0.00000E+00  9.000E+00
#rwgt            1           1   7.1726178796908888E-002           5      490475           0
</event>
<event>
      5   9999  3.79277E-02  2.26448E+01 -1.00000E+00  1.62038E-01
      21    -1     0     0   502   501  0.000000000E+00  0.000000000E+00  7.416390300E+02  7.416390300E+02  0.000000000E+00  0.00000E+00  9.000E+00
      21    -1     0     0   501   511  0.000000000E+00  0.000000000E+00 -3.973505888E+02  3.973505888E+02  0.000000000E+00  0.00000E+00  9.000E+00
      25     1     1     2     0     0 -1.060305258E+01 -6.028641210E+01  1.018215532E+02  1.724514566E+02  1.250000000E+02  0.00000E+00  9.000E+00
      25     1     1     2     0     0  3.139244471E+01  6.926346848E+01  5.952806990E+02  6.129983885E+02  1.250000000E+02  0.00000E+00  9.000E+00
      21     1     1     2   502   511 -2.078939213E+01 -8.977056380E+00 -3.528138110E+02  3.535397737E+02  3.814697266E-06  0.00000E+00  9.000E+00
#rwgt            1           1   5.4412185219308296E-002           5      490697           0
</event>
<event>
      5   9999 -3.87245E-02  1.31112E+01 -1.00000E+00  1.83073E-01
      21    -1     0     0   502   501  0.000000000E+00  0.000000000E+00  5.941483519E+02  5.941483519E+02  0.000000000E+00  0.00000E+00  9.000E+00
      21    -1     0     0   512   502  0.000000000E+00  0.000000000E+00 -1.315811961E+02  1.315811961E+02  0.000000000E+00  0.00000E+00  9.000E+00
      25     1     1     2     0     0 -1.710307538E+02 -1.222061850E+02  3.364859561E+02  4.159731591E+02  1.250000000E+02  0.00000E+00  9.000E+00
      25     1     1     2     0     0  1.837750836E+02  1.191264835E+02  1.417869576E+02  2.892973242E+02  1.250000000E+02  0.00000E+00  9.000E+00
      21     1     1     2   512   501 -1.274432977E+01  3.079701566E+00 -1.570575787E+01  2.045906481E+01  2.920019320E-07  0.00000E+00  9.000E+00
#rwgt            1           1 -0.49841552756014479                5      490803           0
</event>
<event>
      5   9999  3.79277E-02  4.63725E+01 -1.00000E+00  1.40968E-01
      21    -1     0     0   511   501  0.000000000E+00  0.000000000E+00  1.419285464E+02  1.419285464E+02  0.000000000E+00  0.00000E+00  9.000E+00
      21    -1     0     0   501   502  0.000000000E+00  0.000000000E+00 -4.733650202E+02  4.733650202E+02  0.000000000E+00  0.00000E+00  9.000E+00
      25     1     1     2     0     0  8.435336703E+01 -1.039200705E+02 -1.857312088E+02  2.608370248E+02  1.250000000E+02  0.00000E+00  9.000E+00
      25     1     1     2     0     0 -3.815964620E+01  1.079880129E+02 -2.133093703E+02  2.724765256E+02  1.250000000E+02  0.00000E+00  9.000E+00
      21     1     1     2   511   502 -4.619372083E+01 -4.067942325E+00  6.760410538E+01  8.198001624E+01  9.536743164E-07  0.00000E+00  9.000E+00
#rwgt            1           1   3.2870564942766883E-002           5      491029           0
</event>
<event>
      5   9999  3.79277E-02  1.85417E+01 -1.00000E+00  1.69128E-01
      21    -1     0     0   502   512  0.000000000E+00  0.000000000E+00  1.161590882E+03  1.161590882E+03  0.000000000E+00  0.00000E+00  9.000E+00
      21    -1     0     0   501   502  0.000000000E+00  0.000000000E+00 -6.848999524E+01  6.848999524E+01  0.000000000E+00  0.00000E+00  9.000E+00
      25     1     1     2     0     0  7.431819530E+01  1.802058098E+02  6.338240484E+02  6.748001574E+02  1.250000000E+02  0.00000E+00  9.000E+00
      25     1     1     2     0     0 -7.692599172E+01 -1.985632355E+02  2.730729902E+02  3.681559788E+02  1.250000000E+02  0.00000E+00  9.000E+00
      21     1     1     2   501   512  2.607796424E+00  1.835742571E+01  1.862038476E+02  1.871247406E+02  0.000000000E+00  0.00000E+00  9.000E+00
#rwgt            1           1   3.7953699900054268E-002           5      491194           0
</event>
<event>
      5   9999 -3.79277E-02  1.32289E+02 -1.00000E+00  1.18598E-01
      21    -1     0     0   502   501  0.000000000E+00  0.000000000E+00  3.112302240E+02  3.112302240E+02  0.000000000E+00  0.00000E+00  9.000E+00
      21    -1     0     0   501   511  0.000000000E+00  0.000000000E+00 -6.342840896E+02  6.342840896E+02  0.000000000E+00  0.00000E+00  9.000E+00
      25     1     1     2     0     0  2.169929327E+02  6.506337618E+01 -1.646794117E+02  3.066977085E+02  1.250000000E+02  0.00000E+00  9.000E+00
      25     1     1     2     0     0 -9.883064687E+01 -5.581275942E+00  2.005955844E+02  2.562464358E+02  1.250000000E+02  0.00000E+00  9.000E+00
      21     1     1     2   502   511 -1.181622859E+02 -5.948210024E+01 -3.589700383E+02  3.825701693E+02  3.814697266E-06  0.00000E+00  9.000E+00
#rwgt            1           1  -3.4931755888640233E-002           5      491383           0
</event>
<event>
      5   9999  3.79277E-02  2.15598E+01 -1.00000E+00  1.63722E-01
      21    -1     0     0   502   501  0.000000000E+00  0.000000000E+00  1.619633444E+03  1.619633444E+03  0.000000000E+00  0.00000E+00  9.000E+00
      21    -1     0     0   501   512  0.000000000E+00  0.000000000E+00 -2.146152075E+02  2.146152075E+02  0.000000000E+00  0.00000E+00  9.000E+00
      25     1     1     2     0     0  1.271965007E+02  3.140322806E+01  8.602072723E+02  8.790601025E+02  1.250000000E+02  0.00000E+00  9.000E+00
      25     1     1     2     0     0 -1.484374948E+02 -2.770939446E+01  7.365765166E+02  7.622148419E+02  1.250000000E+02  0.00000E+00  9.000E+00
      21     1     1     2   502   512  2.124099410E+01 -3.693833599E+00 -1.917655528E+02  1.929737067E+02  9.725607898E-06  0.00000E+00  9.000E+00
#rwgt            1           1   3.5125207212834318E-002           5      491492           0
</event>
<event>
      5   9999 -3.79277E-02  9.59840E+01 -1.00000E+00  1.24634E-01
      21    -1     0     0   502   501  0.000000000E+00  0.000000000E+00  1.253010415E+02  1.253010415E+02  0.000000000E+00  0.00000E+00  9.000E+00
      -3    -1     0     0     0   502  0.000000000E+00  0.000000000E+00 -1.018697122E+03  1.018697122E+03  0.000000000E+00  0.00000E+00  9.000E+00
      25     1     1     2     0     0  4.392356510E+01 -2.837830041E+02 -2.724877220E+02  4.151344741E+02  1.250000000E+02  0.00000E+00  9.000E+00
      25     1     1     2     0     0  6.608727527E+00  2.021777589E+02 -2.471156483E+02  3.429441137E+02  1.250000000E+02  0.00000E+00  9.000E+00
      -3     1     1     2     0   501 -5.053229262E+01  8.160524520E+01 -3.737927098E+02  3.859195753E+02  0.000000000E+00  0.00000E+00  9.000E+00
#rwgt            1           1 -0.20392952807039250                5      491693           0
</event>
<event>
      5   9999  3.79277E-02  2.63404E+01 -1.00000E+00  1.57071E-01
      21    -1     0     0   502   501  0.000000000E+00  0.000000000E+00  1.709849601E+03  1.709849601E+03  0.000000000E+00  0.00000E+00  9.000E+00
      21    -1     0     0   501   511  0.000000000E+00  0.000000000E+00 -5.747828121E+01  5.747828121E+01  0.000000000E+00  0.00000E+00  9.000E+00
      25     1     1     2     0     0 -6.034346590E+01  6.620802203E+01  1.390584762E+03  1.399062478E+03  1.250000000E+02  0.00000E+00  9.000E+00
      25     1     1     2     0     0  4.073021215E+01 -4.862580280E+01  2.945643046E+02  3.262154939E+02  1.250000000E+02  0.00000E+00  9.000E+00
      21     1     1     2   502   511  1.961325375E+01 -1.758221922E+01 -3.277774782E+01  4.204990972E+01  1.784161275E-06  0.00000E+00  9.000E+00
#rwgt            1           1   3.9488144321217965E-002           5      491755           0
</event>
<event>
      5   9999  3.79277E-02  7.36134E+00 -1.00000E+00  2.12510E-01
      21    -1     0     0   512   501  0.000000000E+00  0.000000000E+00  2.655285719E+01  2.655285719E+01  0.000000000E+00  0.00000E+00  9.000E+00
      21    -1     0     0   501   502  0.000000000E+00  0.000000000E+00 -2.149678317E+03  2.149678317E+03  0.000000000E+00  0.00000E+00  9.000E+00
      25     1     1     2     0     0 -3.492023041E+01 -1.204545128E+01 -1.802970513E+03  1.807675907E+03  1.250000000E+02  0.00000E+00  9.000E+00
      25     1     1     2     0     0  3.528756335E+01  1.939762171E+01 -3.306276020E+02  3.557542566E+02  1.250000000E+02  0.00000E+00  9.000E+00
      21     1     1     2   512   502 -3.673329418E-01 -7.352170430E+00  1.047265548E+01  1.280100997E+01  1.685873940E-07  0.00000E+00  9.000E+00
#rwgt            1           1  0.10600101778751624                5      491886           0
</event>
<event>
      5   9999  3.79277E-02  1.86460E+02 -1.00000E+00  1.12768E-01
      21    -1     0     0   502   501  0.000000000E+00  0.000000000E+00  4.702063300E+02  4.702063300E+02  0.000000000E+00  0.00000E+00  9.000E+00
       2    -1     0     0   501     0  0.000000000E+00  0.000000000E+00 -1.980470205E+03  1.980470205E+03  0.000000000E+00  0.00000E+00  9.000E+00
      25     1     1     2     0     0 -2.288534458E+01  1.049690454E+02 -3.010684254E+01  1.675519664E+02  1.250000000E+02  0.00000E+00  9.000E+00
      25     1     1     2     0     0 -1.498060535E+02 -1.752904702E+02  3.534079479E+02  4.401031473E+02  1.250000000E+02  0.00000E+00  9.000E+00
       2     1     1     2   502     0  1.726913980E+02  7.032142483E+01 -1.833564980E+03  1.843021421E+03  3.051757812E-05  0.00000E+00  9.000E+00
#rwgt            1           1   3.7501098005856069E-002           5      492182           0
</event>
<event>
      5   9999  3.79277E-02  2.17882E+01 -1.00000E+00  1.63358E-01
      21    -1     0     0   502   511  0.000000000E+00  0.000000000E+00  3.668532661E+02  3.668532661E+02  0.000000000E+00  0.00000E+00  9.000E+00
      21    -1     0     0   501   502  0.000000000E+00  0.000000000E+00 -4.540392065E+02  4.540392065E+02  0.000000000E+00  0.00000E+00  9.000E+00
      25     1     1     2     0     0  1.946241960E+02 -3.672992226E+01 -2.113913510E+01  2.351585166E+02  1.250000000E+02  0.00000E+00  9.000E+00
      25     1     1     2     0     0 -2.086793132E+02  2.008123224E+01 -2.795561212E+02  3.711157993E+02  1.250000000E+02  0.00000E+00  9.000E+00
      21     1     1     2   501   511  1.405511714E+01  1.664869002E+01  2.135093159E+02  2.146181567E+02  4.672030912E-06  0.00000E+00  9.000E+00
#rwgt            1           1   3.9003324352005993E-002           5      492250           0
</event>
<event>
      5   9999  3.79277E-02  1.87218E+01 -1.00000E+00  1.68771E-01
      21    -1     0     0   502   501  0.000000000E+00  0.000000000E+00  4.292531576E+01  4.292531576E+01  0.000000000E+00  0.00000E+00  9.000E+00
       1    -1     0     0   501     0  0.000000000E+00  0.000000000E+00 -1.314391884E+03  1.314391884E+03  0.000000000E+00  0.00000E+00  9.000E+00
      25     1     1     2     0     0 -7.625300544E+01 -1.141107586E+02 -4.161466864E+02  4.556740619E+02  1.250000000E+02  0.00000E+00  9.000E+00
      25     1     1     2     0     0  9.481772060E+01  1.116902681E+02 -3.805777297E+02  4.265319736E+02  1.250000000E+02  0.00000E+00  9.000E+00
       1     1     1     2   502     0 -1.856471516E+01  2.420490497E+00 -4.747421520E+02  4.751111642E+02  5.394796609E-06  0.00000E+00  9.000E+00
#rwgt            1           1   6.7496078797441975E-002           5      492537           0
</event>
<event>
      5   9999  3.79277E-02  4.98491E+01 -1.00000E+00  1.39150E-01
      21    -1     0     0   502   501  0.000000000E+00  0.000000000E+00  3.277495228E+02  3.277495228E+02  0.000000000E+00  0.00000E+00  9.000E+00
      21    -1     0     0   511   502  0.000000000E+00  0.000000000E+00 -1.486779948E+02  1.486779948E+02  0.000000000E+00  0.00000E+00  9.000E+00
      25     1     1     2     0     0 -8.537645368E+01  9.828654512E+01  1.353738422E+02  2.256113050E+02  1.250000000E+02  0.00000E+00  9.000E+00
      25     1     1     2     0     0  4.068030028E+01 -1.203589528E+02  7.344022643E+01  1.927683356E+02  1.250000000E+02  0.00000E+00  9.000E+00
      21     1     1     2   511   501  4.469615340E+01  2.207240768E+01 -2.974254057E+01  5.804787704E+01  7.539457465E-07  0.00000E+00  9.000E+00
#rwgt            1           1   4.2034901624834906E-002           5      492673           0
</event>
<event>
      5   9999  3.79277E-02  5.91844E+01 -1.00000E+00  1.35022E-01
      21    -1     0     0   512   501  0.000000000E+00  0.000000000E+00  1.477286817E+03  1.477286817E+03  0.000000000E+00  0.00000E+00  9.000E+00
      21    -1     0     0   501   502  0.000000000E+00  0.000000000E+00 -3.896808778E+01  3.896808778E+01  0.000000000E+00  0.00000E+00  9.000E+00
      25     1     1     2     0     0 -1.583823568E+02 -6.555812464E+01  4.982603843E+02  5.415452420E+02  1.250000000E+02  0.00000E+00  9.000E+00
      25     1     1     2     0     0  1.320706272E+02  1.254406375E+01  5.315098067E+02  5.618965018E+02  1.250000000E+02  0.00000E+00  9.000E+00
      21     1     1     2   512   502  2.631172959E+01  5.301406089E+01  4.085485380E+02  4.128131607E+02  5.394796609E-06  0.00000E+00  9.000E+00
#rwgt            1           1   2.1835175112257653E-002           5      492824           0
</event>
<event>
      5   9999  3.79277E-02  3.19222E+01 -1.00000E+00  1.51190E-01
      21    -1     0     0   502   501  0.000000000E+00  0.000000000E+00  7.531232519E+02  7.531232519E+02  0.000000000E+00  0.00000E+00  9.000E+00
      21    -1     0     0   501   511  0.000000000E+00  0.000000000E+00 -6.660996100E+01  6.660996100E+01  0.000000000E+00  0.00000E+00  9.000E+00
      25     1     1     2     0     0  7.792288145E+01 -1.480193117E+02  2.655045495E+02  3.377859646E+02  1.250000000E+02  0.00000E+00  9.000E+00
      25     1     1     2     0     0 -6.816885275E+01  1.176238457E+02  4.072838476E+02  4.471996133E+02  1.250000000E+02  0.00000E+00  9.000E+00
      21     1     1     2   502   511 -9.754028696E+00  3.039546605E+01  1.372489385E+01  3.474763508E+01  2.384185791E-07  0.00000E+00  9.000E+00
#rwgt            1           1   3.5202502147200304E-002           5      492907           0
</event>
<event>
      5   9999  3.79277E-02  3.22385E+01 -1.00000E+00  1.50900E-01
      21    -1     0     0   512   501  0.000000000E+00  0.000000000E+00  2.294980471E+03  2.294980471E+03  0.000000000E+00  0.00000E+00  9.000E+00
      21    -1     0     0   501   502  0.000000000E+00  0.000000000E+00 -2.327418947E+01  2.327418947E+01  0.000000000E+00  0.00000E+00  9.000E+00
      25     1     1     2     0     0 -1.079095584E+01 -1.390428810E+02  5.710558717E+02  6.009818434E+02  1.250000000E+02  0.00000E+00  9.000E+00
      25     1     1     2     0     0 -1.748045969E+01  1.235493212E+02  9.724576901E+02  9.883668146E+02  1.250000000E+02  0.00000E+00  9.000E+00
      21     1     1     2   512   502  2.827141553E+01  1.549355988E+01  7.281927193E+02  7.289060020E+02  1.078959322E-05  0.00000E+00  9.000E+00
#rwgt            1           1   4.0702781053457905E-002           5      493081           0
</event>
<event>
      5   9999  3.79277E-02  6.29801E+01 -1.00000E+00  1.33588E-01
       1    -1     0     0   502     0  0.000000000E+00  0.000000000E+00  9.027126274E+02  9.027126274E+02  0.000000000E+00  0.00000E+00  9.000E+00
      21    -1     0     0   501   502  0.000000000E+00  0.000000000E+00 -1.081095101E+02  1.081095101E+02  0.000000000E+00  0.00000E+00  9.000E+00
      25     1     1     2     0     0  8.661936458E+01 -1.573562544E+02  1.027506435E+02  2.417573161E+02  1.250000000E+02  0.00000E+00  9.000E+00
      25     1     1     2     0     0 -1.417826623E+02  1.269670898E+02  3.248988278E+02  3.967457795E+02  1.250000000E+02  0.00000E+00  9.000E+00
       1     1     1     2   501     0  5.516329774E+01  3.038916462E+01  3.669536459E+02  3.723190419E+02  5.394796609E-06  0.00000E+00  9.000E+00
#rwgt            1           1   3.8004879027299890E-002           5      493249           0
</event>
<event>
      5   9999  3.79277E-02  4.69222E+01 -1.00000E+00  1.40668E-01
      21    -1     0     0   502   511  0.000000000E+00  0.000000000E+00  1.603861576E+03  1.603861576E+03  0.000000000E+00  0.00000E+00  9.000E+00
      21    -1     0     0   501   502  0.000000000E+00  0.000000000E+00 -8.157528938E+01  8.157528938E+01  0.000000000E+00  0.00000E+00  9.000E+00
      25     1     1     2     0     0 -8.133565501E+01 -3.934337992E+01  9.718700823E+00  1.545407502E+02  1.250000000E+02  0.00000E+00  9.000E+00
      25     1     1     2     0     0  5.771037256E+01  7.988392130E+01  7.410272749E+02  7.579303069E+02  1.250000000E+02  0.00000E+00  9.000E+00
      21     1     1     2   501   511  2.362528245E+01 -4.054054138E+01  7.715403110E+02  7.729658084E+02  1.078959322E-05  0.00000E+00  9.000E+00
#rwgt            2          11   4.1393248353180763E-004           5      493352           0
</event>
<event>
      5   9999  3.79277E-02  9.24064E+01 -1.00000E+00  1.25390E-01
       2    -1     0     0   502     0  0.000000000E+00  0.000000000E+00  2.171083336E+03  2.171083336E+03  0.000000000E+00  0.00000E+00  9.000E+00
      21    -1     0     0   501   502  0.000000000E+00  0.000000000E+00 -2.585140919E+02  2.585140919E+02  0.000000000E+00  0.00000E+00  9.000E+00
      25     1     1     2     0     0 -6.061380934E+01  1.476732129E+02  3.114733681E+02  3.716477778E+02  1.250000000E+02  0.00000E+00  9.000E+00
      25     1     1     2     0     0  1.311097610E+02 -8.792985194E+01 -1.826216166E+02  2.718401794E+02  1.250000000E+02  0.00000E+00  9.000E+00
       2     1     1     2   501     0 -7.049595164E+01 -5.974336095E+01  1.783717492E+03  1.786109471E+03  2.157918644E-05  0.00000E+00  9.000E+00
#rwgt            1           1   7.6666929493585820E-002           5      493462           0
</event>
<event>
      5   9999 -5.33530E-02  8.03093E+01 -1.00000E+00  1.28268E-01
      21    -1     0     0   511   501  0.000000000E+00  0.000000000E+00  6.866710019E+01  6.866710019E+01  0.000000000E+00  0.00000E+00  9.000E+00
      21    -1     0     0   501   502  0.000000000E+00  0.000000000E+00 -1.475739084E+03  1.475739084E+03  0.000000000E+00  0.00000E+00  9.000E+00
      25     1     1     2     0     0  2.108368222E+02  1.726429872E+02 -5.732585143E+02  6.469220129E+02  1.250000000E+02  0.00000E+00  9.000E+00
      25     1     1     2     0     0 -1.629342176E+02 -1.081842597E+02 -7.313403192E+02  7.672907244E+02  1.250000000E+02  0.00000E+00  9.000E+00
      21     1     1     2   511   502 -4.790260452E+01 -6.445872756E+01 -1.024731507E+02  1.301934472E+02  1.907348633E-06  0.00000E+00  9.000E+00
#rwgt            1           1 -0.41698784674239631                5      493589           0
</event>
<event>
      5   9999  3.79277E-02  5.37820E+01 -1.00000E+00  1.37292E-01
      21    -1     0     0   502   501  0.000000000E+00  0.000000000E+00  4.791071685E+02  4.791071685E+02  0.000000000E+00  0.00000E+00  9.000E+00
      21    -1     0     0   512   502  0.000000000E+00  0.000000000E+00 -1.909964712E+02  1.909964712E+02  0.000000000E+00  0.00000E+00  9.000E+00
      25     1     1     2     0     0 -1.582027367E+02  1.311111840E+01  1.054475746E+02  2.279126989E+02  1.250000000E+02  0.00000E+00  9.000E+00
      25     1     1     2     0     0  2.107532080E+02 -1.667509554E+00  2.539475376E+02  3.528938185E+02  1.250000000E+02  0.00000E+00  9.000E+00
      21     1     1     2   512   501 -5.255047131E+01 -1.144360884E+01 -7.128441495E+01  8.929712220E+01  1.348699152E-06  0.00000E+00  9.000E+00
#rwgt            1           1   4.1168064538420826E-002           5      493738           0
</event>
<event>
      5   9999  3.79277E-02  4.91272E+00 -1.00000E+00  2.44069E-01
      21    -1     0     0   502   511  0.000000000E+00  0.000000000E+00  8.705268290E+02  8.705268290E+02  0.000000000E+00  0.00000E+00  9.000E+00
      21    -1     0     0   501   502  0.000000000E+00  0.000000000E+00 -8.171431271E+01  8.171431271E+01  0.000000000E+00  0.00000E+00  9.000E+00
      25     1     1     2     0     0 -1.130710034E+02 -6.310373608E+01  6.104142334E+02  6.363942722E+02  1.250000000E+02  0.00000E+00  9.000E+00
      25     1     1     2     0     0  1.122251517E+02  5.826438053E+01  4.640173120E+01  1.837589273E+02  1.250000000E+02  0.00000E+00  9.000E+00
      21     1     1     2   501   511  8.458517387E-01  4.839355548E+00  1.319965517E+02  1.320879422E+02  1.907348633E-06  0.00000E+00  9.000E+00
#rwgt            1           1   2.6699807400149295E-002           5      493820           0
</event>
<event>
      5   9999  3.79277E-02  9.26362E+01 -1.00000E+00  1.25341E-01
      21    -1     0     0   502   512  0.000000000E+00  0.000000000E+00  5.272767424E+02  5.272767424E+02  0.000000000E+00  0.00000E+00  9.000E+00
      21    -1     0     0   501   502  0.000000000E+00  0.000000000E+00 -7.312184660E+02  7.312184660E+02  0.000000000E+00  0.00000E+00  9.000E+00
      25     1     1     2     0     0  4.004464593E+01 -3.732878223E+01 -2.567939350E+01  1.388576354E+02  1.250000000E+02  0.00000E+00  9.000E+00
      25     1     1     2     0     0 -1.310209741E+02  1.987124942E+01 -6.313861761E+02  6.571414350E+02  1.250000000E+02  0.00000E+00  9.000E+00
      21     1     1     2   501   512  9.097632822E+01  1.745753280E+01  4.531238461E+02  4.624961380E+02  0.000000000E+00  0.00000E+00  9.000E+00
#rwgt            1           1   4.0086347274006728E-002           5      494189           0
</event>
<event>
      5   9999  3.79277E-02  2.67098E+01 -1.00000E+00  1.56629E-01
      21    -1     0     0   502   511  0.000000000E+00  0.000000000E+00  1.853730857E+02  1.853730857E+02  0.000000000E+00  0.00000E+00  9.000E+00
      21    -1     0     0   501   502  0.000000000E+00  0.000000000E+00 -3.914481897E+02  3.914481897E+02  0.000000000E+00  0.00000E+00  9.000E+00
      25     1     1     2     0     0  1.872134087E+02  5.314860807E+00 -1.181178894E+02  2.542713982E+02  1.250000000E+02  0.00000E+00  9.000E+00
      25     1     1     2     0     0 -2.065643850E+02  1.309581787E+01 -1.286373317E+02  2.738848457E+02  1.250000000E+02  0.00000E+00  9.000E+00
      21     1     1     2   501   511  1.935097633E+01 -1.841067868E+01  4.068011703E+01  4.866503155E+01  9.536743164E-07  0.00000E+00  9.000E+00
#rwgt            1           1   4.7572091123311386E-002           5      494243           0
</event>
<event>
      5   9999  3.79277E-02  7.56722E+01 -1.00000E+00  1.29530E-01
       2    -1     0     0   502     0  0.000000000E+00  0.000000000E+00  1.785282755E+03  1.785282755E+03  0.000000000E+00  0.00000E+00  9.000E+00
      21    -1     0     0   501   502  0.000000000E+00  0.000000000E+00 -1.776020289E+02  1.776020289E+02  0.000000000E+00  0.00000E+00  9.000E+00
      25     1     1     2     0     0  1.110579038E+02  3.990076870E+01 -7.100497933E+01  1.859909579E+02  1.250000000E+02  0.00000E+00  9.000E+00
      25     1     1     2     0     0 -7.480390345E+01  2.652163694E+01  6.545619775E+01  1.618905032E+02  1.250000000E+02  0.00000E+00  9.000E+00
       2     1     1     2   501     0 -3.625400032E+01 -6.642240564E+01  1.613229508E+03  1.615003323E+03  2.157918644E-05  0.00000E+00  9.000E+00
#rwgt            1           1   2.8131463691894988E-002           5      494383           0
</event>
<event>
      5   9999  3.79277E-02  6.38100E+01 -1.00000E+00  1.33290E-01
      21    -1     0     0   502   501  0.000000000E+00  0.000000000E+00  5.079351859E+02  5.079351859E+02  0.000000000E+00  0.00000E+00  9.000E+00
      21    -1     0     0   511   502  0.000000000E+00  0.000000000E+00 -9.721570267E+01  9.721570267E+01  0.000000000E+00  0.00000E+00  9.000E+00
      25     1     1     2     0     0 -7.207958456E+01 -7.061733723E+01  3.970973980E+01  1.654815345E+02  1.250000000E+02  0.00000E+00  9.000E+00
      25     1     1     2     0     0  8.501624433E+00  6.518033710E+01  3.411316572E+02  3.692107277E+02  1.250000000E+02  0.00000E+00  9.000E+00
      21     1     1     2   511   501  6.357796012E+01  5.437000131E+00  2.987808628E+01  7.045862633E+01  5.840038640E-07  0.00000E+00  9.000E+00
#rwgt            1           1   4.4172959885378331E-002           5      494460           0
</event>
<event>
      5   9999  3.79277E-02  6.44412E+01 -1.00000E+00  1.33067E-01
      21    -1     0     0   502   501  0.000000000E+00  0.000000000E+00  1.450419127E+02  1.450419127E+02  0.000000000E+00  0.00000E+00  9.000E+00
      -4    -1     0     0     0   502  0.000000000E+00  0.000000000E+00 -4.170811272E+02  4.170811272E+02  0.000000000E+00  0.00000E+00  9.000E+00
      25     1     1     2     0     0  1.120681993E+02 -1.865796052E+00 -1.443415136E+02  2.214096544E+02  1.250000000E+02  0.00000E+00  9.000E+00
      25     1     1     2     0     0 -1.052164987E+02 -6.221016067E+01  2.345557872E+01  1.763966549E+02  1.250000000E+02  0.00000E+00  9.000E+00
      -4     1     1     2     0   501 -6.851700535E+00  6.407595672E+01 -1.511532796E+02  1.643167306E+02  0.000000000E+00  0.00000E+00  9.000E+00
#rwgt            1           1   4.4524668464871235E-002           5      494600           0
</event>
<event>
      5   9999  3.79277E-02  3.16890E+01 -1.00000E+00  1.51406E-01
      21    -1     0     0   502   501  0.000000000E+00  0.000000000E+00  2.719731061E+02  2.719731061E+02  0.000000000E+00  0.00000E+00  9.000E+00
       2    -1     0     0   501     0  0.000000000E+00  0.000000000E+00 -1.077310755E+03  1.077310755E+03  0.000000000E+00  0.00000E+00  9.000E+00
      25     1     1     2     0     0 -2.577666498E+01 -1.274957263E+02  6.805530160E+00  1.805295320E+02  1.250000000E+02  0.00000E+00  9.000E+00
      25     1     1     2     0     0  5.672873416E+01  1.207015406E+02  1.311229326E+02  2.249560727E+02  1.250000000E+02  0.00000E+00  9.000E+00
       2     1     1     2   502     0 -3.095206918E+01  6.794185702E+00 -9.432661120E+02  9.437982568E+02  1.078959322E-05  0.00000E+00  9.000E+00
#rwgt            1           1   3.7617838977086857E-002           5      494698           0
</event>
<event>
      5   9999  3.79277E-02  2.15910E+01 -1.00000E+00  1.63672E-01
      21    -1     0     0   502   501  0.000000000E+00  0.000000000E+00  3.976074177E+02  3.976074177E+02  0.000000000E+00  0.00000E+00  9.000E+00
      21    -1     0     0   511   502  0.000000000E+00  0.000000000E+00 -3.806072003E+02  3.806072003E+02  0.000000000E+00  0.00000E+00  9.000E+00
      25     1     1     2     0     0  6.328049517E+01 -3.352528718E+02 -2.889624687E+01  3.644981512E+02  1.250000000E+02  0.00000E+00  9.000E+00
      25     1     1     2     0     0 -6.195106488E+01  3.568029204E+02  6.021278080E+01  3.878103112E+02  1.250000000E+02  0.00000E+00  9.000E+00
      21     1     1     2   511   501 -1.329430289E+00 -2.155004865E+01 -1.431631656E+01  2.590615567E+01  3.371747881E-07  0.00000E+00  9.000E+00
#rwgt            1           1   2.7284342374241346E-002           5      494822           0
</event>
<event>
      5   9999  3.79277E-02  9.64233E+01 -1.00000E+00  1.24544E-01
      21    -1     0     0   502   501  0.000000000E+00  0.000000000E+00  1.667260338E+03  1.667260338E+03  0.000000000E+00  0.00000E+00  9.000E+00
      21    -1     0     0   501   512  0.000000000E+00  0.000000000E+00 -2.475453149E+02  2.475453149E+02  0.000000000E+00  0.00000E+00  9.000E+00
      25     1     1     2     0     0  5.045331454E+01 -1.075528882E+02  2.475518574E+02  3.016953477E+02  1.250000000E+02  0.00000E+00  9.000E+00
      25     1     1     2     0     0 -7.587683610E+01  1.454156453E+01  1.377997438E+03  1.385810482E+03  1.250000000E+02  0.00000E+00  9.000E+00
      21     1     1     2   502   512  2.542352156E+01  9.301132364E+01 -2.058342729E+02  2.272998233E+02  3.814697266E-06  0.00000E+00  9.000E+00
#rwgt            1           1   4.3815785706743014E-002           5      495082           0
</event>
<event>
      5   9999  3.79277E-02  5.83134E+01 -1.00000E+00  1.35368E-01
      21    -1     0     0   502   501  0.000000000E+00  0.000000000E+00  3.680570450E+02  3.680570450E+02  0.000000000E+00  0.00000E+00  9.000E+00
      21    -1     0     0   511   502  0.000000000E+00  0.000000000E+00 -1.590453639E+02  1.590453639E+02  0.000000000E+00  0.00000E+00  9.000E+00
      25     1     1     2     0     0 -1.693092872E+02  4.136305251E+01  1.152537577E+02  2.434850417E+02  1.250000000E+02  0.00000E+00  9.000E+00
      25     1     1     2     0     0  1.110493560E+02 -4.386072858E+01  1.288140131E+02  2.155777654E+02  1.250000000E+02  0.00000E+00  9.000E+00
      21     1     1     2   511   501  5.825993124E+01  2.497676074E+00 -3.505608974E+01  6.803960171E+01  1.261592536E-06  0.00000E+00  9.000E+00
#rwgt            1           1   3.3717055100160036E-002           5      495265           0
</event>
<event>
      5   9999  3.79277E-02  3.34226E+01 -1.00000E+00  1.49851E-01
      21    -1     0     0   502   501  0.000000000E+00  0.000000000E+00  1.126906625E+03  1.126906625E+03  0.000000000E+00  0.00000E+00  9.000E+00
      21    -1     0     0   512   502  0.000000000E+00  0.000000000E+00 -5.158758169E+01  5.158758169E+01  0.000000000E+00  0.00000E+00  9.000E+00
      25     1     1     2     0     0  5.614703416E+00 -2.640486818E+01  9.779513292E+02  9.862771133E+02  1.250000000E+02  0.00000E+00  9.000E+00
      25     1     1     2     0     0 -3.796021149E+01  1.798839113E+01  8.315273286E+01  1.558971996E+02  1.250000000E+02  0.00000E+00  9.000E+00
      21     1     1     2   512   501  3.234550808E+01  8.416477054E+00  1.421498101E+01  3.631989350E+01  1.294944345E-06  0.00000E+00  9.000E+00
#rwgt            1           1   3.7421199716425359E-002           5      495405           0
</event>
<event>
      5   9999  3.79277E-02  3.59463E+01 -1.00000E+00  1.47778E-01
      21    -1     0     0   502   511  0.000000000E+00  0.000000000E+00  1.021633120E+03  1.021633120E+03  0.000000000E+00  0.00000E+00  9.000E+00
      21    -1     0     0   501   502  0.000000000E+00  0.000000000E+00 -5.513899079E+01  5.513899079E+01  0.000000000E+00  0.00000E+00  9.000E+00
      25     1     1     2     0     0 -5.784927670E+01  1.740433993E+02  5.770190210E+02  6.182342551E+02  1.250000000E+02  0.00000E+00  9.000E+00
      25     1     1     2     0     0  2.550244286E+01 -1.583646853E+02  3.032907215E+02  3.651575138E+02  1.250000000E+02  0.00000E+00  9.000E+00
      21     1     1     2   501   511  3.234683383E+01 -1.567871400E+01  8.618438694E+01  9.338034206E+01  1.348699152E-06  0.00000E+00  9.000E+00
#rwgt            1           1   2.7394337187151681E-002           5      495504           0
</event>
<event>
      5   9999  3.79277E-02  1.00857E+01 -1.00000E+00  1.95330E-01
      21    -1     0     0   502   501  0.000000000E+00  0.000000000E+00  3.656693619E+02  3.656693619E+02  0.000000000E+00  0.00000E+00  9.000E+00
      21    -1     0     0   501   512  0.000000000E+00  0.000000000E+00 -3.810613426E+02  3.810613426E+02  0.000000000E+00  0.00000E+00  9.000E+00
      25     1     1     2     0     0  1.185611071E+02  1.382315934E+02  1.205408143E+02  2.516342533E+02  1.250000000E+02  0.00000E+00  9.000E+00
      25     1     1     2     0     0 -1.263702920E+02 -1.318489932E+02  1.112556776E+02  2.477023083E+02  1.250000000E+02  0.00000E+00  9.000E+00
      21     1     1     2   502   512  7.809184861E+00 -6.382600181E+00 -2.471884726E+02  2.473941429E+02  4.672030912E-06  0.00000E+00  9.000E+00
#rwgt            1           1   3.8221681932079157E-002           5      495702           0
</event>
<event>
      5   9999  3.79277E-02  4.02147E+01 -1.00000E+00  1.44696E-01
      21    -1     0     0   502   511  0.000000000E+00  0.000000000E+00  5.108892172E+02  5.108892172E+02  0.000000000E+00  0.00000E+00  9.000E+00
      21    -1     0     0   501   502  0.000000000E+00  0.000000000E+00 -1.100926539E+02  1.100926539E+02  0.000000000E+00  0.00000E+00  9.000E+00
      25     1     1     2     0     0 -9.586165572E+01  2.741527657E+01 -5.481494428E-01  1.598948245E+02  1.250000000E+02  0.00000E+00  9.000E+00
      25     1     1     2     0     0  1.359832247E+02 -2.467937331E+01  3.404207718E+02  3.880873751E+02  1.250000000E+02  0.00000E+00  9.000E+00
      21     1     1     2   501   511 -4.012156903E+01 -2.735903268E+00  6.092394092E+01  7.299967155E+01  9.536743164E-07  0.00000E+00  9.000E+00
#rwgt            1           1   4.3565782686341370E-002           5      495945           0
</event>
<event>
      5   9999  3.79277E-02  2.29190E+02 -1.00000E+00  1.09536E-01
      21    -1     0     0   512   501  0.000000000E+00  0.000000000E+00  7.511021647E+02  7.511021647E+02  0.000000000E+00  0.00000E+00  9.000E+00
      21    -1     0     0   501   502  0.000000000E+00  0.000000000E+00 -3.080117017E+02  3.080117017E+02  0.000000000E+00  0.00000E+00  9.000E+00
      25     1     1     2     0     0  2.386805858E+02 -3.289014498E+01 -3.344203198E+00  2.714523299E+02  1.250000000E+02  0.00000E+00  9.000E+00
      25     1     1     2     0     0 -9.544533184E+00  3.786663236E+01 -1.193713079E+02  1.771990099E+02  1.250000000E+02  0.00000E+00  9.000E+00
      21     1     1     2   512   502 -2.291360527E+02 -4.976487382E+00  5.658059741E+02  6.104625266E+02  7.629394531E-06  0.00000E+00  9.000E+00
#rwgt            1           1   3.7779965713630202E-002           5      496118           0
</event>
<event>
      5   9999 -3.79277E-02  1.24932E+02 -1.00000E+00  1.19630E-01
      21    -1     0     0   502   501  0.000000000E+00  0.000000000E+00  1.449586777E+02  1.449586777E+02  0.000000000E+00  0.00000E+00  9.000E+00
      21    -1     0     0   501   511  0.000000000E+00  0.000000000E+00 -4.697081795E+02  4.697081795E+02  0.000000000E+00  0.00000E+00  9.000E+00
      25     1     1     2     0     0 -7.556340830E+01 -2.921745056E+01 -4.373582411E+01  1.552459674E+02  1.250000000E+02  0.00000E+00  9.000E+00
      25     1     1     2     0     0  2.004365789E+02  3.305672219E+01 -1.846847792E+02  3.016637809E+02  1.250000000E+02  0.00000E+00  9.000E+00
      21     1     1     2   502   511 -1.248731706E+02 -3.839271629E+00 -9.632889846E+01  1.577571089E+02  1.907348633E-06  0.00000E+00  9.000E+00
#rwgt            1           1 -0.15391729399057555                5      496233           0
</event>
<event>
      5   9999 -3.79277E-02  7.71691E+00 -1.00000E+00  2.09738E-01
      21    -1     0     0   512   501  0.000000000E+00  0.000000000E+00  1.966855616E+02  1.966855616E+02  0.000000000E+00  0.00000E+00  9.000E+00
      21    -1     0     0   501   502  0.000000000E+00  0.000000000E+00 -1.824468409E+02  1.824468409E+02  0.000000000E+00  0.00000E+00  9.000E+00
      25     1     1     2     0     0 -1.221851836E+02 -3.412172523E+01  8.589630054E+00  1.783039343E+02  1.250000000E+02  0.00000E+00  9.000E+00
      25     1     1     2     0     0  1.296376406E+02  3.612461041E+01 -9.402579024E+00  1.839138761E+02  1.250000000E+02  0.00000E+00  9.000E+00
      21     1     1     2   512   502 -7.452456962E+00 -2.002885177E+00  1.505166972E+01  1.691459208E+01  2.384185791E-07  0.00000E+00  9.000E+00
#rwgt            1           1 -0.11018107961194254                5      496297           0
</event>
<event>
      5   9999  3.79277E-02  1.11121E+02 -1.00000E+00  1.21803E-01
      21    -1     0     0   502   511  0.000000000E+00  0.000000000E+00  2.479655324E+02  2.479655324E+02  0.000000000E+00  0.00000E+00  9.000E+00
      21    -1     0     0   501   502  0.000000000E+00  0.000000000E+00 -3.489099821E+02  3.489099821E+02  0.000000000E+00  0.00000E+00  9.000E+00
      25     1     1     2     0     0  1.325774313E+01  1.413508766E+02 -2.346426391E+02  3.013934408E+02  1.250000000E+02  0.00000E+00  9.000E+00
      25     1     1     2     0     0 -4.093937956E+01 -3.373335674E+01  1.240859304E+02  1.839464332E+02  1.250000000E+02  0.00000E+00  9.000E+00
      21     1     1     2   501   511  2.768163644E+01 -1.076175199E+02  9.612258962E+00  1.115356405E+02  1.540523527E-06  0.00000E+00  9.000E+00
#rwgt            1           1   3.0135610008094241E-002           5      496545           0
</event>
<event>
      5   9999  3.79277E-02  1.51026E+02 -1.00000E+00  1.16276E-01
      21    -1     0     0   502   501  0.000000000E+00  0.000000000E+00  2.942611139E+02  2.942611139E+02  0.000000000E+00  0.00000E+00  9.000E+00
      21    -1     0     0   501   512  0.000000000E+00  0.000000000E+00 -8.631006974E+02  8.631006974E+02  0.000000000E+00  0.00000E+00  9.000E+00
      25     1     1     2     0     0 -8.267986220E+01  2.172882808E+02  4.088036927E+01  2.671073963E+02  1.250000000E+02  0.00000E+00  9.000E+00
      25     1     1     2     0     0 -6.834596532E+01 -2.176589856E+02  2.022048775E+00  2.601455240E+02  1.250000000E+02  0.00000E+00  9.000E+00
      21     1     1     2   502   512  1.510258275E+02  3.707048281E-01 -6.117420015E+02  6.301088909E+02  7.629394531E-06  0.00000E+00  9.000E+00
#rwgt            1           1   3.6714355994136708E-002           5      496600           0
</event>
<event>
      5   9999  3.79277E-02  1.05096E+02 -1.00000E+00  1.22865E-01
      21    -1     0     0   502   501  0.000000000E+00  0.000000000E+00  4.746888979E+02  4.746888979E+02  0.000000000E+00  0.00000E+00  9.000E+00
      21    -1     0     0   511   502  0.000000000E+00  0.000000000E+00 -3.605438321E+02  3.605438321E+02  0.000000000E+00  0.00000E+00  9.000E+00
      25     1     1     2     0     0 -3.489398063E+01  1.143788500E+02  3.914500325E+02  4.279699045E+02  1.250000000E+02  0.00000E+00  9.000E+00
      25     1     1     2     0     0 -6.253876988E+01 -7.498296915E+01 -6.704879753E+01  1.722036139E+02  1.250000000E+02  0.00000E+00  9.000E+00
      21     1     1     2   511   501  9.743275051E+01 -3.939588088E+01 -2.102561692E+02  2.350592116E+02  4.672030912E-06  0.00000E+00  9.000E+00
#rwgt            1           1   2.4397828126924342E-002           5      496638           0
</event>
<event>
      5   9999  3.79277E-02  3.57156E+01 -1.00000E+00  1.47959E-01
       2    -1     0     0   502     0  0.000000000E+00  0.000000000E+00  9.514502081E+02  9.514502081E+02  0.000000000E+00  0.00000E+00  9.000E+00
      21    -1     0     0   501   502  0.000000000E+00  0.000000000E+00 -5.200551672E+01  5.200551672E+01  0.000000000E+00  0.00000E+00  9.000E+00
      25     1     1     2     0     0  5.456544987E+01 -9.915855445E+01  5.499809368E+02  5.752511087E+02  1.250000000E+02  0.00000E+00  9.000E+00
      25     1     1     2     0     0 -6.376690365E+01  1.336685193E+02  2.166909295E+02  2.907119708E+02  1.250000000E+02  0.00000E+00  9.000E+00
       2     1     1     2   501     0  9.201453775E+00 -3.450996484E+01  1.327728251E+02  1.374926453E+02  1.907348633E-06  0.00000E+00  9.000E+00
#rwgt            1           1   3.4381420128871250E-002           5      496720           0
</event>
<event>
      5   9999  3.79277E-02  8.26844E+01 -1.00000E+00  1.27660E-01
      21    -1     0     0   511   501  0.000000000E+00  0.000000000E+00  1.164210794E+03  1.164210794E+03  0.000000000E+00  0.00000E+00  9.000E+00
      21    -1     0     0   501   502  0.000000000E+00  0.000000000E+00 -9.142549015E+01  9.142549015E+01  0.000000000E+00  0.00000E+00  9.000E+00
      25     1     1     2     0     0  1.797149032E+02  6.115982902E+01  1.033833862E+02  2.497020137E+02  1.250000000E+02  0.00000E+00  9.000E+00
      25     1     1     2     0     0 -9.713507416E+01 -5.700217481E+01  7.990986255E+02  8.166199139E+02  1.250000000E+02  0.00000E+00  9.000E+00
      21     1     1     2   511   502 -8.257982905E+01 -4.157654202E+00  1.703032924E+02  1.893143567E+02  1.907348633E-06  0.00000E+00  9.000E+00
#rwgt            1           1   3.4364987548067896E-002           5      496860           0
</event>
<event>
      5   9999  3.79277E-02  5.59107E+01 -1.00000E+00  1.36362E-01
      21    -1     0     0   502   501  0.000000000E+00  0.000000000E+00  7.689780904E+01  7.689780904E+01  0.000000000E+00  0.00000E+00  9.000E+00
       2    -1     0     0   501     0  0.000000000E+00  0.000000000E+00 -2.955687792E+03  2.955687792E+03  0.000000000E+00  0.00000E+00  9.000E+00
      25     1     1     2     0     0 -9.228954217E+01  2.246708220E+02 -2.224521058E+02  3.522843698E+02  1.250000000E+02  0.00000E+00  9.000E+00
      25     1     1     2     0     0  3.963270541E+01 -2.058755771E+02 -1.294246374E+03  1.317062710E+03  1.250000000E+02  0.00000E+00  9.000E+00
       2     1     1     2   502     0  5.265683676E+01 -1.879524488E+01 -1.362091503E+03  1.363238521E+03  1.525878906E-05  0.00000E+00  9.000E+00
#rwgt            1           1   4.2561279962172467E-002           5      496978           0
</event>
<event>
      5   9999  3.79277E-02  1.83224E+01 -1.00000E+00  1.69571E-01
      21    -1     0     0   502   511  0.000000000E+00  0.000000000E+00  8.910924300E+01  8.910924300E+01  0.000000000E+00  0.00000E+00  9.000E+00
      21    -1     0     0   501   502  0.000000000E+00  0.000000000E+00 -1.142404032E+03  1.142404032E+03  0.000000000E+00  0.00000E+00  9.000E+00
      25     1     1     2     0     0 -1.082915167E+02  2.168309061E+02 -5.578997793E+02  6.209829773E+02  1.250000000E+02  0.00000E+00  9.000E+00
      25     1     1     2     0     0  1.243434550E+02 -2.256651564E+02 -5.114510972E+02  5.861683056E+02  1.250000000E+02  0.00000E+00  9.000E+00
      21     1     1     2   501   511 -1.605193829E+01  8.834250341E+00  1.605608765E+01  2.436199196E+01  1.215700987E-06  0.00000E+00  9.000E+00
#rwgt            1           1   3.7894461650800737E-002           5      497196           0
</event>
<event>
      5   9999  3.79277E-02  1.38652E+02 -1.00000E+00  1.17764E-01
      21    -1     0     0   502   501  0.000000000E+00  0.000000000E+00  3.364399087E+02  3.364399087E+02  0.000000000E+00  0.00000E+00  9.000E+00
      21    -1     0     0   512   502  0.000000000E+00  0.000000000E+00 -5.189872291E+02  5.189872291E+02  0.000000000E+00  0.00000E+00  9.000E+00
      25     1     1     2     0     0  6.877532233E+01  1.358387418E+02 -1.991139838E+02  2.800956753E+02  1.250000000E+02  0.00000E+00  9.000E+00
      25     1     1     2     0     0  3.189505360E+01 -2.311798686E+02  2.095976011E+02  3.376648937E+02  1.250000000E+02  0.00000E+00  9.000E+00
      21     1     1     2   512   501 -1.006703759E+02  9.534112682E+01 -1.930309376E+02  2.376665688E+02  0.000000000E+00  0.00000E+00  9.000E+00
#rwgt            2          11   2.0130908195851644E-003           5      497482           0
</event>
<event>
      5   9999  3.79277E-02  1.62787E+01 -1.00000E+00  1.74101E-01
      21    -1     0     0   511   501  0.000000000E+00  0.000000000E+00  2.691134968E+02  2.691134968E+02  0.000000000E+00  0.00000E+00  9.000E+00
      21    -1     0     0   501   502  0.000000000E+00  0.000000000E+00 -1.990352825E+02  1.990352825E+02  0.000000000E+00  0.00000E+00  9.000E+00
      25     1     1     2     0     0  6.051512795E+01  9.173655362E+01 -1.114403454E+02  2.003038356E+02  1.250000000E+02  0.00000E+00  9.000E+00
      25     1     1     2     0     0 -5.658848108E+01 -1.075345753E+02  1.411186938E+02  2.242887131E+02  1.250000000E+02  0.00000E+00  9.000E+00
      21     1     1     2   511   502 -3.926646868E+00  1.579802171E+01  4.039986592E+01  4.355623046E+01  4.768371582E-07  0.00000E+00  9.000E+00
#rwgt            1           1   3.3908064055006806E-002           5      497517           0
</event>
<event>
      5   9999  3.79277E-02  6.06868E+01 -1.00000E+00  1.34440E-01
      21    -1     0     0   512   501  0.000000000E+00  0.000000000E+00  3.496457001E+02  3.496457001E+02  0.000000000E+00  0.00000E+00  9.000E+00
      21    -1     0     0   501   502  0.000000000E+00  0.000000000E+00 -1.776011530E+02  1.776011530E+02  0.000000000E+00  0.00000E+00  9.000E+00
      25     1     1     2     0     0  1.393029221E+01 -1.427665054E+02  1.701069207E+00  1.902740700E+02  1.250000000E+02  0.00000E+00  9.000E+00
      25     1     1     2     0     0 -6.207888846E+01  1.797070812E+02  1.154895808E+02  2.551690943E+02  1.250000000E+02  0.00000E+00  9.000E+00
      21     1     1     2   512   502  4.814859625E+01 -3.694057582E+01  5.485389708E+01  8.180368872E+01  9.536743164E-07  0.00000E+00  9.000E+00
#rwgt            1           1   3.3890966125486956E-002           5      497787           0
</event>
<event>
      5   9999  3.79277E-02  2.21222E+01 -1.00000E+00  1.62835E-01
      21    -1     0     0   502   501  0.000000000E+00  0.000000000E+00  8.997791736E+02  8.997791736E+02  0.000000000E+00  0.00000E+00  9.000E+00
      21    -1     0     0   501   511  0.000000000E+00  0.000000000E+00 -7.623747789E+01  7.623747789E+01  0.000000000E+00  0.00000E+00  9.000E+00
      25     1     1     2     0     0 -1.041272560E+02 -5.842215346E+01  7.487289379E+02  7.684241380E+02  1.250000000E+02  0.00000E+00  9.000E+00
      25     1     1     2     0     0  8.379557599E+01  6.714085645E+01  8.235513220E+01  1.842198712E+02  1.250000000E+02  0.00000E+00  9.000E+00
      21     1     1     2   502   511  2.033167999E+01 -8.718702990E+00 -7.542374385E+00  2.337264222E+01  7.444617746E-07  0.00000E+00  9.000E+00
#rwgt            1           1   4.5838511035878181E-002           5      497879           0
</event>
<event>
      5   9999  3.79277E-02  1.80570E+02 -1.00000E+00  1.13288E-01
      21    -1     0     0   502   501  0.000000000E+00  0.000000000E+00  8.078567371E+02  8.078567371E+02  0.000000000E+00  0.00000E+00  9.000E+00
      21    -1     0     0   501   512  0.000000000E+00  0.000000000E+00 -5.203909857E+02  5.203909857E+02  0.000000000E+00  0.00000E+00  9.000E+00
      25     1     1     2     0     0  9.275718174E+01  1.639893176E+02  7.126156479E+02  7.476245399E+02  1.250000000E+02  0.00000E+00  9.000E+00
      25     1     1     2     0     0 -1.563190748E+02  5.023721131E+00 -1.445442464E+02  2.469391222E+02  1.250000000E+02  0.00000E+00  9.000E+00
      21     1     1     2   502   512  6.356189305E+01 -1.690130387E+02 -2.806056501E+02  3.336840607E+02  3.814697266E-06  0.00000E+00  9.000E+00
#rwgt            1           1   5.3094188937200637E-002           5      498010           0
</event>
<event>
      5   9999  3.79277E-02  8.25724E+01 -1.00000E+00  1.27688E-01
      21    -1     0     0   502   501  0.000000000E+00  0.000000000E+00  2.547520948E+02  2.547520948E+02  0.000000000E+00  0.00000E+00  9.000E+00
      21    -1     0     0   501   511  0.000000000E+00  0.000000000E+00 -2.559052048E+02  2.559052048E+02  0.000000000E+00  0.00000E+00  9.000E+00
      25     1     1     2     0     0 -1.284568821E+02 -7.804607732E+01 -1.574061443E+01  1.961252857E+02  1.250000000E+02  0.00000E+00  9.000E+00
      25     1     1     2     0     0  1.812450592E+02  1.455109868E+01  4.739131990E+01  2.256821729E+02  1.250000000E+02  0.00000E+00  9.000E+00
      21     1     1     2   502   511 -5.278817703E+01  6.349497863E+01 -3.280381548E+01  8.884984106E+01  1.846782373E-06  0.00000E+00  9.000E+00
#rwgt            1           1   3.2162443537851408E-002           5      498056           0
</event>
<event>
      5   9999  3.79277E-02  2.61958E+01 -1.00000E+00  1.57246E-01
      21    -1     0     0   502   501  0.000000000E+00  0.000000000E+00  1.750658511E+02  1.750658511E+02  0.000000000E+00  0.00000E+00  9.000E+00
      21    -1     0     0   512   502  0.000000000E+00  0.000000000E+00 -1.722174202E+02  1.722174202E+02  0.000000000E+00  0.00000E+00  9.000E+00
      25     1     1     2     0     0 -3.610049373E+01 -7.884245788E+01  1.805065081E+01  1.531998851E+02  1.250000000E+02  0.00000E+00  9.000E+00
      25     1     1     2     0     0  1.067385335E+01  7.254113766E+01  2.404290711E+01  1.468986357E+02  1.250000000E+02  0.00000E+00  9.000E+00
      21     1     1     2   512   501  2.542664037E+01  6.301320226E+00 -3.924512698E+01  4.718475038E+01  6.743495762E-07  0.00000E+00  9.000E+00
#rwgt            1           1  0.10626788063344088                5      498135           0
</event>
<event>
      5   9999  3.79277E-02  2.45993E+01 -1.00000E+00  1.59278E-01
      21    -1     0     0   511   501  0.000000000E+00  0.000000000E+00  8.395904630E+02  8.395904630E+02  0.000000000E+00  0.00000E+00  9.000E+00
      21    -1     0     0   501   502  0.000000000E+00  0.000000000E+00 -2.215899226E+02  2.215899226E+02  0.000000000E+00  0.00000E+00  9.000E+00
      25     1     1     2     0     0 -1.967116117E+01  1.497492071E+02  2.069213973E+02  2.850495471E+02  1.250000000E+02  0.00000E+00  9.000E+00
      25     1     1     2     0     0  1.729297842E+01 -1.252651067E+02 -1.388829573E+02  2.256188598E+02  1.250000000E+02  0.00000E+00  9.000E+00
      21     1     1     2   511   502  2.378182751E+00 -2.448410038E+01  5.499621003E+02  5.505119787E+02  7.629394531E-06  0.00000E+00  9.000E+00
#rwgt            1           1   3.9620924196104731E-002           5      498268           0
</event>
<event>
      5   9999  3.79277E-02  2.19787E+01 -1.00000E+00  1.63058E-01
      21    -1     0     0   512   501  0.000000000E+00  0.000000000E+00  8.121111646E+01  8.121111646E+01  0.000000000E+00  0.00000E+00  9.000E+00
      21    -1     0     0   501   502  0.000000000E+00  0.000000000E+00 -4.913735678E+02  4.913735678E+02  0.000000000E+00  0.00000E+00  9.000E+00
      25     1     1     2     0     0  1.254918037E+02  3.382453117E+01 -3.031266320E+02  3.527081608E+02  1.250000000E+02  0.00000E+00  9.000E+00
      25     1     1     2     0     0 -1.040420066E+02 -3.861694954E+01 -1.058798236E+02  1.978674935E+02  1.250000000E+02  0.00000E+00  9.000E+00
      21     1     1     2   512   502 -2.144979717E+01  4.792418370E+00 -1.155995755E+00  2.200902994E+01  1.919880320E-07  0.00000E+00  9.000E+00
#rwgt            1           1   4.5675928084551558E-002           5      498430           0
</event>
<event>
      5   9999 -3.79277E-02  7.83220E+01 -1.00000E+00  1.28797E-01
      21    -1     0     0   502   511  0.000000000E+00  0.000000000E+00  8.355604506E+01  8.355604506E+01  0.000000000E+00  0.00000E+00  9.000E+00
      21    -1     0     0   501   502  0.000000000E+00  0.000000000E+00 -6.351913595E+02  6.351913595E+02  0.000000000E+00  0.00000E+00  9.000E+00
      25     1     1     2     0     0  5.101296694E+01  1.204996576E+02 -1.309731519E+02  2.233863398E+02  1.250000000E+02  0.00000E+00  9.000E+00
      25     1     1     2     0     0 -1.069781043E+02 -6.570693901E+01 -3.371814446E+02  3.808911173E+02  1.250000000E+02  0.00000E+00  9.000E+00
      21     1     1     2   501   511  5.596513732E+01 -5.479271863E+01 -8.348071787E+01  1.144699474E+02  1.651812370E-06  0.00000E+00  9.000E+00
#rwgt            1           1  -1.1193709053082802E-002           5      498631           0
</event>
<event>
      5   9999  3.79277E-02  2.36706E+01 -1.00000E+00  1.60549E-01
      21    -1     0     0   502   512  0.000000000E+00  0.000000000E+00  1.472510140E+02  1.472510140E+02  0.000000000E+00  0.00000E+00  9.000E+00
      21    -1     0     0   501   502  0.000000000E+00  0.000000000E+00 -3.166908029E+02  3.166908029E+02  0.000000000E+00  0.00000E+00  9.000E+00
      25     1     1     2     0     0 -9.127165761E+01  1.612928907E+01  8.147711731E-01  1.556159802E+02  1.250000000E+02  0.00000E+00  9.000E+00
      25     1     1     2     0     0  1.086702546E+02 -7.976520619E-02 -2.066953696E+02  2.648720567E+02  1.250000000E+02  0.00000E+00  9.000E+00
      21     1     1     2   501   512 -1.739859703E+01 -1.604952387E+01  3.644080956E+01  4.345378000E+01  6.743495762E-07  0.00000E+00  9.000E+00
#rwgt            1           1   4.0625915208119125E-002           5      498743           0
</event>
<event>
      5   9999  3.79277E-02  1.14267E+02 -1.00000E+00  1.21278E-01
      21    -1     0     0   511   501  0.000000000E+00  0.000000000E+00  4.303147843E+02  4.303147843E+02  0.000000000E+00  0.00000E+00  9.000E+00
      21    -1     0     0   501   502  0.000000000E+00  0.000000000E+00 -1.601002187E+02  1.601002187E+02  0.000000000E+00  0.00000E+00  9.000E+00
      25     1     1     2     0     0  6.653563418E+01  1.514819083E+02  8.058556924E+00  2.075179498E+02  1.250000000E+02  0.00000E+00  9.000E+00
      25     1     1     2     0     0  3.231336618E+01 -9.415911065E+01  1.877194675E+02  2.465232043E+02  1.250000000E+02  0.00000E+00  9.000E+00
      21     1     1     2   511   502 -9.884900036E+01 -5.732279763E+01  7.443654119E+01  1.363738489E+02  9.536743164E-07  0.00000E+00  9.000E+00
#rwgt            1           1   1.2118091423449514E-002           5      498873           0
</event>
<event>
      5   9999  3.79277E-02  9.13523E+01 -1.00000E+00  1.25621E-01
      21    -1     0     0   502   501  0.000000000E+00  0.000000000E+00  4.537945527E+02  4.537945527E+02  0.000000000E+00  0.00000E+00  9.000E+00
      21    -1     0     0   501   512  0.000000000E+00  0.000000000E+00 -2.353932802E+02  2.353932802E+02  0.000000000E+00  0.00000E+00  9.000E+00
      25     1     1     2     0     0  1.199785925E+02 -1.594539242E+02 -3.532761764E+01  2.381038790E+02  1.250000000E+02  0.00000E+00  9.000E+00
      25     1     1     2     0     0 -1.962381014E+02  1.091574927E+02  2.516753975E+02  3.597085714E+02  1.250000000E+02  0.00000E+00  9.000E+00
      21     1     1     2   502   512  7.625950883E+01  5.029643148E+01  2.053492576E+00  9.137538256E+01  1.034101938E-06  0.00000E+00  9.000E+00
#rwgt            1           1   3.5306188653510547E-002           5      498975           0
</event>
<event>
      5   9999  3.79277E-02  1.02462E+02 -1.00000E+00  1.23355E-01
      21    -1     0     0   502   511  0.000000000E+00  0.000000000E+00  3.536581011E+02  3.536581011E+02  0.000000000E+00  0.00000E+00  9.000E+00
      21    -1     0     0   501   502  0.000000000E+00  0.000000000E+00 -2.817787763E+02  2.817787763E+02  0.000000000E+00  0.00000E+00  9.000E+00
      25     1     1     2     0     0  1.726785866E+02  1.648339852E+01 -1.775388754E+02  2.779112250E+02  1.250000000E+02  0.00000E+00  9.000E+00
      25     1     1     2     0     0 -7.523675415E+01 -4.816179930E+01  1.460538824E+02  2.119831707E+02  1.250000000E+02  0.00000E+00  9.000E+00
      21     1     1     2   501   511 -9.744183241E+01  3.167840078E+01  1.033643179E+02  1.455424817E+02  2.336015456E-06  0.00000E+00  9.000E+00
#rwgt            1           1   3.7867020799317572E-002           5      499134           0
</event>
<event>
      5   9999  3.79277E-02  1.34299E+01 -1.00000E+00  1.82030E-01
      21    -1     0     0   502   501  0.000000000E+00  0.000000000E+00  4.051972149E+01  4.051972149E+01  0.000000000E+00  0.00000E+00  9.000E+00
      21    -1     0     0   512   502  0.000000000E+00  0.000000000E+00 -9.442464797E+02  9.442464797E+02  0.000000000E+00  0.00000E+00  9.000E+00
      25     1     1     2     0     0 -1.312666143E+02 -1.281940838E+01 -3.742190691E+02  4.160050155E+02  1.250000000E+02  0.00000E+00  9.000E+00
      25     1     1     2     0     0  1.433907133E+02  1.859600939E+01 -4.628000424E+02  5.007150761E+02  1.250000000E+02  0.00000E+00  9.000E+00
      21     1     1     2   512   501 -1.212409896E+01 -5.776601019E+00 -6.670764671E+01  6.804610955E+01  1.651812370E-06  0.00000E+00  9.000E+00
#rwgt            1           1   5.8314352064636032E-002           5      499222           0
</event>
<event>
      5   9999  3.79277E-02  1.78823E+01 -1.00000E+00  1.70482E-01
      21    -1     0     0   511   501  0.000000000E+00  0.000000000E+00  1.818742651E+02  1.818742651E+02  0.000000000E+00  0.00000E+00  9.000E+00
      21    -1     0     0   501   502  0.000000000E+00  0.000000000E+00 -3.300423683E+02  3.300423683E+02  0.000000000E+00  0.00000E+00  9.000E+00
      25     1     1     2     0     0 -4.137666710E+00  5.367712899E+01 -2.726341103E+02  3.047174307E+02  1.250000000E+02  0.00000E+00  9.000E+00
      25     1     1     2     0     0  2.074419910E+01 -6.031035319E+01  8.549947401E+01  1.643253497E+02  1.250000000E+02  0.00000E+00  9.000E+00
      21     1     1     2   511   502 -1.660653239E+01  6.633224200E+00  3.896653305E+01  4.287385309E+01  6.743495762E-07  0.00000E+00  9.000E+00
#rwgt            1           1   2.5144493884911086E-002           5      499410           0
</event>
<event>
      5   9999  3.79277E-02  7.32512E+00 -1.00000E+00  2.12804E-01
       2    -1     0     0   502     0  0.000000000E+00  0.000000000E+00  7.412617751E+02  7.412617751E+02  0.000000000E+00  0.00000E+00  9.000E+00
      21    -1     0     0   501   502  0.000000000E+00  0.000000000E+00 -1.484966903E+02  1.484966903E+02  0.000000000E+00  0.00000E+00  9.000E+00
      25     1     1     2     0     0  1.334988349E+01  1.168353278E+02  1.336494332E+02  2.175221465E+02  1.250000000E+02  0.00000E+00  9.000E+00
      25     1     1     2     0     0 -6.026889907E+00 -1.166586903E+02 -3.784458076E+01  1.752221039E+02  1.250000000E+02  0.00000E+00  9.000E+00
       2     1     1     2   501     0 -7.322993578E+00 -1.766375124E-01  4.969602323E+02  4.970142150E+02  5.394796609E-06  0.00000E+00  9.000E+00
#rwgt            1           1   4.1380172787077264E-002           5      499578           0
</event>
<event>
      5   9999  3.79277E-02  1.68879E+02 -1.00000E+00  1.14389E-01
      21    -1     0     0   511   501  0.000000000E+00  0.000000000E+00  3.191694217E+02  3.191694217E+02  0.000000000E+00  0.00000E+00  9.000E+00
      21    -1     0     0   501   502  0.000000000E+00  0.000000000E+00 -1.070148607E+03  1.070148607E+03  0.000000000E+00  0.00000E+00  9.000E+00
      25     1     1     2     0     0  3.739787280E+01 -1.193040743E+02 -2.014984272E+02  2.680646921E+02  1.250000000E+02  0.00000E+00  9.000E+00
      25     1     1     2     0     0  3.577021044E+01  2.715094389E+02 -7.796650416E+02  8.357628015E+02  1.250000000E+02  0.00000E+00  9.000E+00
      21     1     1     2   511   502 -7.316808323E+01 -1.522053646E+02  2.301842833E+02  2.854905352E+02  0.000000000E+00  0.00000E+00  9.000E+00
#rwgt            2          11   3.7758685440408509E-003           5      499935           0
</event>
<event>
      5   9999  3.79277E-02  1.26773E+01 -1.00000E+00  1.84555E-01
      21    -1     0     0   502   501  0.000000000E+00  0.000000000E+00  7.582899417E+02  7.582899417E+02  0.000000000E+00  0.00000E+00  9.000E+00
      21    -1     0     0   501   512  0.000000000E+00  0.000000000E+00 -8.484045941E+01  8.484045941E+01  0.000000000E+00  0.00000E+00  9.000E+00
      25     1     1     2     0     0  2.289741631E+01  1.762639133E+02  3.157577328E+02  3.833030193E+02  1.250000000E+02  0.00000E+00  9.000E+00
      25     1     1     2     0     0 -3.556771353E+01 -1.766860749E+02  3.773333623E+02  4.364498798E+02  1.250000000E+02  0.00000E+00  9.000E+00
      21     1     1     2   502   512  1.267029721E+01  4.221615783E-01 -1.964161270E+01  2.337750203E+01  4.768371582E-07  0.00000E+00  9.000E+00
#rwgt            1           1   4.1610689328922472E-002           5      500045           0
</event>
<event>
      5   9999  3.79277E-02  6.09226E+01 -1.00000E+00  1.34350E-01
      -1    -1     0     0     0   501  0.000000000E+00  0.000000000E+00  1.735119788E+03  1.735119788E+03  0.000000000E+00  0.00000E+00  9.000E+00
      21    -1     0     0   501   502  0.000000000E+00  0.000000000E+00 -6.983578376E+01  6.983578376E+01  0.000000000E+00  0.00000E+00  9.000E+00
      25     1     1     2     0     0 -1.780822880E+02 -8.253671532E+00  2.806995752E+02  3.552445298E+02  1.250000000E+02  0.00000E+00  9.000E+00
      25     1     1     2     0     0  2.389702097E+02  1.030797920E+01  5.474244901E+02  6.103372740E+02  1.250000000E+02  0.00000E+00  9.000E+00
      -1     1     1     2     0   502 -6.088792172E+01 -2.054307664E+00  8.371599388E+02  8.393737679E+02  0.000000000E+00  0.00000E+00  9.000E+00
#rwgt            1           1   3.0249310468290064E-002           5      500220           0
</event>
<event>
      5   9999  3.79277E-02  4.05960E+01 -1.00000E+00  1.44443E-01
      21    -1     0     0   502   501  0.000000000E+00  0.000000000E+00  2.171530321E+02  2.171530321E+02  0.000000000E+00  0.00000E+00  9.000E+00
       2    -1     0     0   501     0  0.000000000E+00  0.000000000E+00 -1.780417440E+03  1.780417440E+03  0.000000000E+00  0.00000E+00  9.000E+00
      25     1     1     2     0     0  1.068153853E+02 -9.173430826E+01  1.905434195E+01  1.892426426E+02  1.250000000E+02  0.00000E+00  9.000E+00
      25     1     1     2     0     0 -8.133861861E+01  6.012778536E+01  5.542344596E+01  1.700825676E+02  1.250000000E+02  0.00000E+00  9.000E+00
       2     1     1     2   502     0 -2.547676664E+01  3.160652290E+01 -1.637742196E+03  1.638245262E+03  2.157918644E-05  0.00000E+00  9.000E+00
#rwgt            1           1   2.3503645599804592E-002           5      500298           0
</event>
<event>
      5   9999  3.79277E-02  3.84579E+01 -1.00000E+00  1.45907E-01
      21    -1     0     0   502   501  0.000000000E+00  0.000000000E+00  9.052680603E+01  9.052680603E+01  0.000000000E+00  0.00000E+00  9.000E+00
      21    -1     0     0   511   502  0.000000000E+00  0.000000000E+00 -8.578991544E+02  8.578991544E+02  0.000000000E+00  0.00000E+00  9.000E+00
      25     1     1     2     0     0  4.774530187E+01 -3.784421368E+01  1.036204278E+01  1.394423547E+02  1.250000000E+02  0.00000E+00  9.000E+00
      25     1     1     2     0     0 -8.619245392E+01  3.875349502E+01 -4.048171623E+02  4.340885939E+02  1.250000000E+02  0.00000E+00  9.000E+00
      21     1     1     2   511   501  3.844715205E+01 -9.092813391E-01 -3.729172289E+02  3.748950118E+02  5.394796609E-06  0.00000E+00  9.000E+00
#rwgt            1           1   3.5652534574522117E-002           5      500385           0
</event>
<event>
      5   9999  3.79277E-02  1.82309E+01 -1.00000E+00  1.69757E-01
      21    -1     0     0   512   501  0.000000000E+00  0.000000000E+00  5.471118753E+02  5.471118753E+02  0.000000000E+00  0.00000E+00  9.000E+00
      21    -1     0     0   501   502  0.000000000E+00  0.000000000E+00 -3.651307599E+02  3.651307599E+02  0.000000000E+00  0.00000E+00  9.000E+00
      25     1     1     2     0     0 -1.275169634E+02 -2.223998112E+02 -2.026420736E+00  2.852215952E+02  1.250000000E+02  0.00000E+00  9.000E+00
      25     1     1     2     0     0  1.092956494E+02  2.218074944E+02 -1.344998025E+02  3.079923707E+02  1.250000000E+02  0.00000E+00  9.000E+00
      21     1     1     2   512   502  1.822131399E+01  5.923168501E-01  3.185073386E+02  3.190286693E+02  5.394796609E-06  0.00000E+00  9.000E+00
#rwgt            1           1   3.4483188708954872E-002           5      500452           0
</event>
<event>
      5   9999  3.79277E-02  1.04687E+02 -1.00000E+00  1.22940E-01
      21    -1     0     0   502   511  0.000000000E+00  0.000000000E+00  2.514573415E+03  2.514573415E+03  0.000000000E+00  0.00000E+00  9.000E+00
      21    -1     0     0   501   502  0.000000000E+00  0.000000000E+00 -4.720563813E+01  4.720563813E+01  0.000000000E+00  0.00000E+00  9.000E+00
      25     1     1     2     0     0  7.135975753E+01 -1.156883911E+02  2.036887634E+02  2.749365948E+02  1.250000000E+02  0.00000E+00  9.000E+00
      25     1     1     2     0     0 -1.184128787E+02  2.217223953E+01  7.622974256E+02  7.818155685E+02  1.250000000E+02  0.00000E+00  9.000E+00
      21     1     1     2   501   511  4.705312116E+01  9.351615153E+01  1.501381588E+03  1.505026890E+03  3.051757812E-05  0.00000E+00  9.000E+00
#rwgt            1           1   3.4083553070867870E-002           5      500756           0
</event>
<event>
      5   9999  3.79277E-02  6.59211E+01 -1.00000E+00  1.32555E-01
      21    -1     0     0   502   501  0.000000000E+00  0.000000000E+00  1.871105740E+02  1.871105740E+02  0.000000000E+00  0.00000E+00  9.000E+00
      21    -1     0     0   512   502  0.000000000E+00  0.000000000E+00 -4.226355468E+02  4.226355468E+02  0.000000000E+00  0.00000E+00  9.000E+00
      25     1     1     2     0     0 -2.088485239E+02  1.831775655E+01 -1.969241097E+02  3.136197556E+02  1.250000000E+02  0.00000E+00  9.000E+00
      25     1     1     2     0     0  1.433381249E+02 -2.566477758E+01  3.739906272E+01  1.955203026E+02  1.250000000E+02  0.00000E+00  9.000E+00
      21     1     1     2   512   501  6.551039897E+01  7.347021023E+00 -7.599992585E+01  1.006060625E+02  1.348699152E-06  0.00000E+00  9.000E+00
#rwgt            1           1   4.8936025385272308E-002           5      500843           0
</event>
<event>
      5   9999  3.79277E-02  1.39802E+01 -1.00000E+00  1.80313E-01
      21    -1     0     0   502   501  0.000000000E+00  0.000000000E+00  7.181692788E+02  7.181692788E+02  0.000000000E+00  0.00000E+00  9.000E+00
      21    -1     0     0   511   502  0.000000000E+00  0.000000000E+00 -8.799219216E+01  8.799219216E+01  0.000000000E+00  0.00000E+00  9.000E+00
      25     1     1     2     0     0 -8.078901539E+01  1.099660357E+02  5.147630354E+02  5.470149693E+02  1.250000000E+02  0.00000E+00  9.000E+00
      25     1     1     2     0     0  6.684571652E+01 -1.089506610E+02  1.425260856E+02  2.286422564E+02  1.250000000E+02  0.00000E+00  9.000E+00
      21     1     1     2   511   501  1.394329886E+01 -1.015374792E+00 -2.711203437E+01  3.050424523E+01  1.118282261E-06  0.00000E+00  9.000E+00
#rwgt            1           1   4.1770536355996195E-002           5      500891           0
</event>
<event>
      5   9999  3.79277E-02  4.13437E+01 -1.00000E+00  1.43956E-01
      21    -1     0     0   512   501  0.000000000E+00  0.000000000E+00  6.148951498E+01  6.148951498E+01  0.000000000E+00  0.00000E+00  9.000E+00
      21    -1     0     0   501   502  0.000000000E+00  0.000000000E+00 -8.216934467E+02  8.216934467E+02  0.000000000E+00  0.00000E+00  9.000E+00
      25     1     1     2     0     0 -4.981359075E+01  1.744928465E+02 -3.772113302E+02  4.368552792E+02  1.250000000E+02  0.00000E+00  9.000E+00
      25     1     1     2     0     0  3.618436266E+01 -1.354601929E+02 -3.139108425E+02  3.658193393E+02  1.250000000E+02  0.00000E+00  9.000E+00
      21     1     1     2   512   502  1.362922808E+01 -3.903265360E+01 -6.908175904E+01  8.050834328E+01  1.348699152E-06  0.00000E+00  9.000E+00
#rwgt            1           1   4.3308563612294924E-002           5      501130           0
</event>
<event>
      5   9999  3.79277E-02  1.03162E+02 -1.00000E+00  1.23223E-01
      21    -1     0     0   511   501  0.000000000E+00  0.000000000E+00  1.472672560E+02  1.472672560E+02  0.000000000E+00  0.00000E+00  9.000E+00
      21    -1     0     0   501   502  0.000000000E+00  0.000000000E+00 -1.087902676E+03  1.087902676E+03  0.000000000E+00  0.00000E+00  9.000E+00
      25     1     1     2     0     0 -4.085210052E+01 -7.499757072E+00 -1.984532647E+02  2.381886621E+02  1.250000000E+02  0.00000E+00  9.000E+00
      25     1     1     2     0     0  1.379266510E+02 -2.741458453E+01 -8.363805871E+02  8.572822213E+02  1.250000000E+02  0.00000E+00  9.000E+00
      21     1     1     2   511   502 -9.707455045E+01  3.491434160E+01  9.419843185E+01  1.396990485E+02  4.672030912E-06  0.00000E+00  9.000E+00
#rwgt            1           1   2.9031193824311397E-002           5      501396           0
</event>
<event>
      5   9999  3.79277E-02  1.12413E+02 -1.00000E+00  1.21585E-01
      21    -1     0     0   512   501  0.000000000E+00  0.000000000E+00  6.769612911E+01  6.769612911E+01  0.000000000E+00  0.00000E+00  9.000E+00
      21    -1     0     0   501   502  0.000000000E+00  0.000000000E+00 -1.007796669E+03  1.007796669E+03  0.000000000E+00  0.00000E+00  9.000E+00
      25     1     1     2     0     0 -1.044065563E+02  6.159077795E+01 -4.305625437E+02  4.644386471E+02  1.250000000E+02  0.00000E+00  9.000E+00
      25     1     1     2     0     0  7.636345312E+01 -1.704492159E+02 -3.474397881E+02  4.137918783E+02  1.250000000E+02  0.00000E+00  9.000E+00
      21     1     1     2   512   502  2.804310316E+01  1.088584380E+02 -1.620982081E+02  1.972622727E+02  2.697398305E-06  0.00000E+00  9.000E+00
#rwgt            1           1   4.1863778540389848E-002           5      501562           0
</event>
<event>
      5   9999  3.79277E-02  9.40346E+01 -1.00000E+00  1.25041E-01
      21    -1     0     0   502   501  0.000000000E+00  0.000000000E+00  3.639224818E+02  3.639224818E+02  0.000000000E+00  0.00000E+00  9.000E+00
       2    -1     0     0   501     0  0.000000000E+00  0.000000000E+00 -8.045828895E+02  8.045828895E+02  0.000000000E+00  0.00000E+00  9.000E+00
      25     1     1     2     0     0 -1.799171547E+02 -3.110139912E+01  8.162589986E+01  2.358500946E+02  1.250000000E+02  0.00000E+00  9.000E+00
      25     1     1     2     0     0  2.315728783E+02 -4.747464316E+01  1.131070924E+02  2.903412717E+02  1.250000000E+02  0.00000E+00  9.000E+00
       2     1     1     2   502     0 -5.165572357E+01  7.857604228E+01 -6.353934000E+02  6.423140050E+02  1.078959322E-05  0.00000E+00  9.000E+00
#rwgt            1           1   4.3523817864518942E-002           5      501725           0
</event>
<event>
      5   9999  3.79277E-02  1.18083E+01 -1.00000E+00  1.87766E-01
      21    -1     0     0   502   501  0.000000000E+00  0.000000000E+00  1.122211793E+03  1.122211793E+03  0.000000000E+00  0.00000E+00  9.000E+00
      21    -1     0     0   501   511  0.000000000E+00  0.000000000E+00 -5.849923032E+01  5.849923032E+01  0.000000000E+00  0.00000E+00  9.000E+00
      25     1     1     2     0     0 -5.592127607E+01  1.453949601E+00  1.002767127E+03  1.012075202E+03  1.250000000E+02  0.00000E+00  9.000E+00
      25     1     1     2     0     0  4.511482483E+01 -6.213828232E+00  7.300976450E+01  1.517543568E+02  1.250000000E+02  0.00000E+00  9.000E+00
      21     1     1     2   502   511  1.080645124E+01  4.759878631E+00 -1.206432866E+01  1.688146495E+01  5.331201500E-07  0.00000E+00  9.000E+00
#rwgt            1           1   4.4583645923838920E-002           5      501855           0
</event>
<event>
      5   9999  3.79277E-02  4.48061E+01 -1.00000E+00  1.41849E-01
      21    -1     0     0   512   501  0.000000000E+00  0.000000000E+00  1.911405729E+02  1.911405729E+02  0.000000000E+00  0.00000E+00  9.000E+00
      21    -1     0     0   501   502  0.000000000E+00  0.000000000E+00 -2.177459881E+02  2.177459881E+02  0.000000000E+00  0.00000E+00  9.000E+00
      25     1     1     2     0     0  1.020275814E+02 -4.867243767E+01 -2.996403993E+01  1.711767427E+02  1.250000000E+02  0.00000E+00  9.000E+00
      25     1     1     2     0     0 -1.144852503E+02  9.171189137E+01  6.082243557E+00  1.928209979E+02  1.250000000E+02  0.00000E+00  9.000E+00
      21     1     1     2   512   502  1.245766887E+01 -4.303945370E+01 -2.723618839E+00  4.488882030E+01  5.430241572E-07  0.00000E+00  9.000E+00
#rwgt            1           1  0.22189476445660480                5      502330           0
</event>
<event>
      5   9999  3.79277E-02  3.54039E+01 -1.00000E+00  1.48206E-01
      21    -1     0     0   502   511  0.000000000E+00  0.000000000E+00  1.576144633E+02  1.576144633E+02  0.000000000E+00  0.00000E+00  9.000E+00
      21    -1     0     0   501   502  0.000000000E+00  0.000000000E+00 -1.744467775E+03  1.744467775E+03  0.000000000E+00  0.00000E+00  9.000E+00
      25     1     1     2     0     0  6.042833660E+01 -1.707909606E+02 -1.099781774E+03  1.121590873E+03  1.250000000E+02  0.00000E+00  9.000E+00
      25     1     1     2     0     0 -9.116995328E+01  1.532299358E+02 -6.125557422E+02  6.501083839E+02  1.250000000E+02  0.00000E+00  9.000E+00
      21     1     1     2   501   511  3.074161668E+01  1.756102477E+01  1.254842038E+02  1.303829820E+02  1.348699152E-06  0.00000E+00  9.000E+00
#rwgt            1           1   3.0513140317582815E-002           5      502539           0
</event>
<event>
      5   9999  3.79277E-02  1.80707E+02  7.55638E-03  1.13276E-01
      -2    -1     0     0     0   501  0.000000000E+00  0.000000000E+00  2.929776207E+02  2.929776207E+02  0.000000000E+00  0.00000E+00  9.000E+00
       2    -1     0     0   502     0  0.000000000E+00  0.000000000E+00 -4.126754393E+02  4.126754393E+02  0.000000000E+00  0.00000E+00  9.000E+00
      25     1     1     2     0     0  2.078968570E+01  1.650630283E+02 -8.897416234E+01  2.263170694E+02  1.250000000E+02  0.00000E+00  9.000E+00
      25     1     1     2     0     0  1.067384162E+02 -3.703362812E+01  1.486698576E+02  2.247049302E+02  1.250000000E+02  0.00000E+00  9.000E+00
      21     1     1     2   502   501 -1.275281019E+02 -1.280294002E+02 -1.793935139E+02  2.546310604E+02  2.697398305E-06  0.00000E+00  9.000E+00
#rwgt            3           4   2.4503030969762432E-005           5      502822           0
</event>
<event>
      5   9999  3.79277E-02  2.77404E+01 -1.00000E+00  1.55440E-01
      21    -1     0     0   502   511  0.000000000E+00  0.000000000E+00  5.977935470E+01  5.977935470E+01  0.000000000E+00  0.00000E+00  9.000E+00
      21    -1     0     0   501   502  0.000000000E+00  0.000000000E+00 -1.827840273E+03  1.827840273E+03  0.000000000E+00  0.00000E+00  9.000E+00
      25     1     1     2     0     0 -1.822981393E+02  2.003387394E+02 -7.711326280E+02  8.268244990E+02  1.250000000E+02  0.00000E+00  9.000E+00
      25     1     1     2     0     0  2.042279677E+02 -1.833501160E+02 -9.858115296E+02  1.030910132E+03  1.250000000E+02  0.00000E+00  9.000E+00
      21     1     1     2   501   511 -2.192982833E+01 -1.698862339E+01 -1.111676115E+01  2.988499747E+01  7.052516679E-07  0.00000E+00  9.000E+00
#rwgt            1           1   8.9061425760931762E-002           5      502931           0
</event>
<event>
      5   9999  3.79277E-02  1.83917E+01 -1.00000E+00  1.69430E-01
      21    -1     0     0   502   501  0.000000000E+00  0.000000000E+00  1.450123893E+03  1.450123893E+03  0.000000000E+00  0.00000E+00  9.000E+00
      21    -1     0     0   501   512  0.000000000E+00  0.000000000E+00 -2.718628728E+01  2.718628728E+01  0.000000000E+00  0.00000E+00  9.000E+00
      25     1     1     2     0     0  4.429196357E+01  1.075722963E+02  9.416773168E+02  9.570343494E+02  1.250000000E+02  0.00000E+00  9.000E+00
      25     1     1     2     0     0 -3.483195207E+01 -1.233444813E+02  4.282680920E+02  4.641828137E+02  1.250000000E+02  0.00000E+00  9.000E+00
      21     1     1     2   502   512 -9.460011499E+00  1.577218495E+01  5.299219696E+01  5.609301716E+01  9.536743164E-07  0.00000E+00  9.000E+00
#rwgt            1           1   5.4901129857085298E-002           5      503130           0
</event>
<event>
      5   9999  3.79277E-02  1.61014E+02 -1.00000E+00  1.15187E-01
      21    -1     0     0   502   511  0.000000000E+00  0.000000000E+00  2.307377553E+02  2.307377553E+02  0.000000000E+00  0.00000E+00  9.000E+00
      21    -1     0     0   501   502  0.000000000E+00  0.000000000E+00 -1.405045075E+03  1.405045075E+03  0.000000000E+00  0.00000E+00  9.000E+00
      25     1     1     2     0     0  1.998076626E+02 -2.903631623E+02 -4.692770797E+02  6.000665343E+02  1.250000000E+02  0.00000E+00  9.000E+00
      25     1     1     2     0     0 -1.090024715E+02  1.573973351E+02 -8.112273561E+02  8.428346713E+02  1.250000000E+02  0.00000E+00  9.000E+00
      21     1     1     2   501   511 -9.080519112E+01  1.329658272E+02  1.061971157E+02  1.928816251E+02  4.862803949E-06  0.00000E+00  9.000E+00
#rwgt            1           1   3.5823270195874828E-003           5      503283           0
</event>
<event>
      5   9999  3.79277E-02  1.11524E+02 -1.00000E+00  1.21734E-01
      21    -1     0     0   502   501  0.000000000E+00  0.000000000E+00  2.243009665E+03  2.243009665E+03  0.000000000E+00  0.00000E+00  9.000E+00
      21    -1     0     0   501   512  0.000000000E+00  0.000000000E+00 -1.299775639E+02  1.299775639E+02  0.000000000E+00  0.00000E+00  9.000E+00
      25     1     1     2     0     0  8.354756513E+01 -1.671538966E+02  1.518348219E+03  1.534902907E+03  1.250000000E+02  0.00000E+00  9.000E+00
      25     1     1     2     0     0 -2.091672807E+01  2.594303875E+02  6.517247998E+02  7.128196477E+02  1.250000000E+02  0.00000E+00  9.000E+00
      21     1     1     2   502   512 -6.263083706E+01 -9.227649084E+01 -5.704091697E+01  1.252646747E+02  2.939421655E-06  0.00000E+00  9.000E+00
#rwgt            1           1  0.17518780789790842                5      503495           0
</event>
<event>
      5   9999  3.79277E-02  4.49414E+01 -1.00000E+00  1.41771E-01
      21    -1     0     0   502   511  0.000000000E+00  0.000000000E+00  3.488520454E+02  3.488520454E+02  0.000000000E+00  0.00000E+00  9.000E+00
      21    -1     0     0   501   502  0.000000000E+00  0.000000000E+00 -2.080923059E+02  2.080923059E+02  0.000000000E+00  0.00000E+00  9.000E+00
      25     1     1     2     0     0 -2.977597554E+01  1.765860538E+02  1.673049150E+02  2.751093922E+02  1.250000000E+02  0.00000E+00  9.000E+00
      25     1     1     2     0     0  6.890327049E+01 -1.544775848E+02 -6.764501687E+01  2.209340019E+02  1.250000000E+02  0.00000E+00  9.000E+00
      21     1     1     2   501   511 -3.912729494E+01 -2.210846905E+01  4.109984140E+01  6.090095710E+01  4.768371582E-07  0.00000E+00  9.000E+00
#rwgt            1           1   3.0145078535882098E-002           5      503735           0
</event>
<event>
      5   9999  3.79277E-02  5.61067E+01 -1.00000E+00  1.36279E-01
      21    -1     0     0   512   501  0.000000000E+00  0.000000000E+00  7.109767639E+02  7.109767639E+02  0.000000000E+00  0.00000E+00  9.000E+00
      21    -1     0     0   501   502  0.000000000E+00  0.000000000E+00 -1.515730767E+02  1.515730767E+02  0.000000000E+00  0.00000E+00  9.000E+00
      25     1     1     2     0     0 -1.149052857E+02 -1.695375200E+02  2.158881789E+02  3.227675652E+02  1.250000000E+02  0.00000E+00  9.000E+00
      25     1     1     2     0     0  1.350219575E+02  2.219138252E+02  1.250514100E+02  3.142284678E+02  1.250000000E+02  0.00000E+00  9.000E+00
      21     1     1     2   512   502 -2.011667182E+01 -5.237630522E+01  2.184640983E+02  2.255538076E+02  2.697398305E-06  0.00000E+00  9.000E+00
#rwgt            1           1   2.4738601518104985E-002           5      503845           0
</event>
<event>
      5   9999  3.79277E-02  1.22447E+01 -1.00000E+00  1.86111E-01
      21    -1     0     0   502   501  0.000000000E+00  0.000000000E+00  1.503128956E+02  1.503128956E+02  0.000000000E+00  0.00000E+00  9.000E+00
      21    -1     0     0   501   511  0.000000000E+00  0.000000000E+00 -6.018205442E+02  6.018205442E+02  0.000000000E+00  0.00000E+00  9.000E+00
      25     1     1     2     0     0  6.804618596E+01  2.483598572E+02 -1.638574295E+02  3.298289849E+02  1.250000000E+02  0.00000E+00  9.000E+00
      25     1     1     2     0     0 -6.897700451E+01 -2.361505995E+02 -2.182383761E+02  3.518208658E+02  1.250000000E+02  0.00000E+00  9.000E+00
      21     1     1     2   502   511  9.308185511E-01 -1.220925771E+01 -6.941184296E+01  7.048358915E+01  9.536743164E-07  0.00000E+00  9.000E+00
#rwgt            1           1   3.4386013348944200E-002           5      504125           0
</event>
<event>
      5   9999  3.79277E-02  7.59983E+01 -1.00000E+00  1.29438E-01
      21    -1     0     0   502   512  0.000000000E+00  0.000000000E+00  5.014124626E+02  5.014124626E+02  0.000000000E+00  0.00000E+00  9.000E+00
      21    -1     0     0   501   502  0.000000000E+00  0.000000000E+00 -2.360592035E+02  2.360592035E+02  0.000000000E+00  0.00000E+00  9.000E+00
      25     1     1     2     0     0 -8.864849124E+01 -2.078031052E+02  2.563436796E+02  3.638375566E+02  1.250000000E+02  0.00000E+00  9.000E+00
      25     1     1     2     0     0  1.957925157E+01  1.760984487E+02 -1.015767166E+02  2.394511225E+02  1.250000000E+02  0.00000E+00  9.000E+00
      21     1     1     2   501   512  6.906923967E+01  3.170465647E+01  1.105862960E+02  1.341829869E+02  0.000000000E+00  0.00000E+00  9.000E+00
#rwgt            1           1   3.7638505787676163E-002           5      504397           0
</event>
<event>
      5   9999  3.79277E-02  5.04455E+01 -1.00000E+00  1.38856E-01
      21    -1     0     0   502   501  0.000000000E+00  0.000000000E+00  1.096562661E+02  1.096562661E+02  0.000000000E+00  0.00000E+00  9.000E+00
      21    -1     0     0   511   502  0.000000000E+00  0.000000000E+00 -9.029611880E+02  9.029611880E+02  0.000000000E+00  0.00000E+00  9.000E+00
      25     1     1     2     0     0  2.271162675E+02  4.312069804E+01 -2.380787520E+02  3.546092014E+02  1.250000000E+02  0.00000E+00  9.000E+00
      25     1     1     2     0     0 -2.729598726E+02 -2.207041599E+01 -4.512981571E+02  5.424843057E+02  1.250000000E+02  0.00000E+00  9.000E+00
      21     1     1     2   511   501  4.584360507E+01 -2.105028205E+01 -1.039280128E+02  1.155239470E+02  1.348699152E-06  0.00000E+00  9.000E+00
#rwgt            1           1   3.5096252070405426E-002           5      504546           0
</event>
<event>
      5   9999  3.79277E-02  7.44649E+01 -1.00000E+00  1.29875E-01
      21    -1     0     0   502   501  0.000000000E+00  0.000000000E+00  1.965458224E+02  1.965458224E+02  0.000000000E+00  0.00000E+00  9.000E+00
      21    -1     0     0   512   502  0.000000000E+00  0.000000000E+00 -5.058580016E+02  5.058580016E+02  0.000000000E+00  0.00000E+00  9.000E+00
      25     1     1     2     0     0  2.071814120E+02  1.293230490E+02 -5.814519958E+01  2.804540118E+02  1.250000000E+02  0.00000E+00  9.000E+00
      25     1     1     2     0     0 -2.012328603E+02 -5.509612485E+01 -1.202138726E+02  2.713054039E+02  1.250000000E+02  0.00000E+00  9.000E+00
      21     1     1     2   512   501 -5.948551733E+00 -7.422692414E+01 -1.309531069E+02  1.506444083E+02  0.000000000E+00  0.00000E+00  9.000E+00
#rwgt            1           1   3.5576162555527056E-002           5      504646           0
</event>
<event>
      5   9999  3.79277E-02  3.49495E+01 -1.00000E+00  1.48572E-01
      21    -1     0     0   511   501  0.000000000E+00  0.000000000E+00  9.281721011E+01  9.281721011E+01  0.000000000E+00  0.00000E+00  9.000E+00
      21    -1     0     0   501   502  0.000000000E+00  0.000000000E+00 -1.322090665E+03  1.322090665E+03  0.000000000E+00  0.00000E+00  9.000E+00
      25     1     1     2     0     0  1.768666115E+02  1.504365013E+02 -6.229255531E+02  6.764422990E+02  1.250000000E+02  0.00000E+00  9.000E+00
      25     1     1     2     0     0 -1.883654893E+02 -1.174328290E+02 -6.406829893E+02  6.894720587E+02  1.250000000E+02  0.00000E+00  9.000E+00
      21     1     1     2   511   502  1.149887781E+01 -3.300367231E+01  3.433508715E+01  4.899351781E+01  1.168007728E-06  0.00000E+00  9.000E+00
#rwgt            1           1   4.2803273498072655E-002           5      504762           0
</event>
<event>
      5   9999  3.79277E-02  2.61529E+01 -1.00000E+00  1.57298E-01
      21    -1     0     0   502   501  0.000000000E+00  0.000000000E+00  3.880673561E+02  3.880673561E+02  0.000000000E+00  0.00000E+00  9.000E+00
      21    -1     0     0   501   512  0.000000000E+00  0.000000000E+00 -4.170111223E+02  4.170111223E+02  0.000000000E+00  0.00000E+00  9.000E+00
      25     1     1     2     0     0  1.377882919E+02 -2.553615420E+01 -2.264290011E+02  2.941645816E+02  1.250000000E+02  0.00000E+00  9.000E+00
      25     1     1     2     0     0 -1.624217967E+02  1.675187392E+01  3.228899396E+02  3.828111524E+02  1.250000000E+02  0.00000E+00  9.000E+00
      21     1     1     2   502   512  2.463350476E+01  8.784280286E+00 -1.254047048E+02  1.281027444E+02  1.907348633E-06  0.00000E+00  9.000E+00
#rwgt            1           1   3.5544532726230878E-002           5      504862           0
</event>
<event>
      5   9999 -3.79277E-02  9.91711E+01 -1.00000E+00  1.23991E-01
      21    -1     0     0   502   511  0.000000000E+00  0.000000000E+00  1.793654954E+03  1.793654954E+03  0.000000000E+00  0.00000E+00  9.000E+00
      21    -1     0     0   501   502  0.000000000E+00  0.000000000E+00 -1.061853499E+03  1.061853499E+03  0.000000000E+00  0.00000E+00  9.000E+00
      25     1     1     2     0     0  9.686551005E+01 -1.974612707E+02 -6.151848378E+02  6.651701024E+02  1.250000000E+02  0.00000E+00  9.000E+00
      25     1     1     2     0     0 -1.898626657E+01  1.360631485E+02 -3.997478021E+02  4.407912930E+02  1.250000000E+02  0.00000E+00  9.000E+00
      21     1     1     2   501   511 -7.787924349E+01  6.139812224E+01  1.746734095E+03  1.749547057E+03  2.157918644E-05  0.00000E+00  9.000E+00
#rwgt            1           1 -0.25060460924758282                5      505097           0
</event>
<event>
      5   9999  3.79277E-02  4.76812E+00 -1.00000E+00  2.46701E-01
      21    -1     0     0   502   501  0.000000000E+00  0.000000000E+00  3.090763766E+02  3.090763766E+02  0.000000000E+00  0.00000E+00  9.000E+00
      21    -1     0     0   512   502  0.000000000E+00  0.000000000E+00 -3.233656793E+02  3.233656793E+02  0.000000000E+00  0.00000E+00  9.000E+00
      25     1     1     2     0     0  1.333218996E+02 -5.750018318E+01 -4.120123942E+01  1.959682171E+02  1.250000000E+02  0.00000E+00  9.000E+00
      25     1     1     2     0     0 -1.292807602E+02  6.003083624E+01  1.928707398E+02  2.704465539E+02  1.250000000E+02  0.00000E+00  9.000E+00
      21     1     1     2   512   501 -4.041139430E+00 -2.530653068E+00 -1.659588030E+02  1.660272849E+02  1.907348633E-06  0.00000E+00  9.000E+00
#rwgt            1           1   2.8331996854127614E-002           5      505146           0
</event>
<event>
      5   9999  3.79277E-02  4.70843E+01 -1.00000E+00  1.40581E-01
      21    -1     0     0   502   511  0.000000000E+00  0.000000000E+00  3.612911364E+02  3.612911364E+02  0.000000000E+00  0.00000E+00  9.000E+00
      21    -1     0     0   501   502  0.000000000E+00  0.000000000E+00 -1.698044461E+02  1.698044461E+02  0.000000000E+00  0.00000E+00  9.000E+00
      25     1     1     2     0     0  1.343441511E+02 -8.157984167E+01  2.126594430E+02  2.924938635E+02  1.250000000E+02  0.00000E+00  9.000E+00
      25     1     1     2     0     0 -9.604464013E+01  5.419220486E+01 -6.042039220E+01  1.773047990E+02  1.250000000E+02  0.00000E+00  9.000E+00
      21     1     1     2   501   511 -3.829951092E+01  2.738763681E+01  3.924763944E+01  6.129691989E+01  6.743495762E-07  0.00000E+00  9.000E+00
#rwgt            1           1   1.6037290366036395E-002           5      505457           0
</event>
<event>
      5   9999  3.79277E-02  8.10495E+01 -1.00000E+00  1.28076E-01
      21    -1     0     0   502   512  0.000000000E+00  0.000000000E+00  8.613873657E+02  8.613873657E+02  0.000000000E+00  0.00000E+00  9.000E+00
      21    -1     0     0   501   502  0.000000000E+00  0.000000000E+00 -9.557569277E+01  9.557569277E+01  0.000000000E+00  0.00000E+00  9.000E+00
      25     1     1     2     0     0 -2.636486332E+01  1.480998306E+02  9.659526069E+01  2.181382824E+02  1.250000000E+02  0.00000E+00  9.000E+00
      25     1     1     2     0     0  1.059349712E+02 -1.635145145E+02  5.140607558E+02  5.637753766E+02  1.250000000E+02  0.00000E+00  9.000E+00
      21     1     1     2   501   512 -7.957010789E+01  1.541468387E+01  1.551556564E+02  1.750493995E+02  2.697398305E-06  0.00000E+00  9.000E+00
#rwgt            1           1   4.6690216714434858E-002           5      505589           0
</event>
<event>
      5   9999  3.79277E-02  2.24514E+01 -1.00000E+00  1.62330E-01
      21    -1     0     0   502   501  0.000000000E+00  0.000000000E+00  3.761632606E+02  3.761632606E+02  0.000000000E+00  0.00000E+00  9.000E+00
      21    -1     0     0   511   502  0.000000000E+00  0.000000000E+00 -3.801021195E+02  3.801021195E+02  0.000000000E+00  0.00000E+00  9.000E+00
      25     1     1     2     0     0  3.797267024E+01 -1.860866424E+02 -2.596399309E+01  2.288433768E+02  1.250000000E+02  0.00000E+00  9.000E+00
      25     1     1     2     0     0 -6.042148600E+01  1.864298181E+02  2.248236724E+02  3.233844720E+02  1.250000000E+02  0.00000E+00  9.000E+00
      21     1     1     2   511   501  2.244881576E+01 -3.431757758E-01 -2.027985382E+02  2.040375314E+02  2.697398305E-06  0.00000E+00  9.000E+00
#rwgt            1           1   3.3764820620456694E-002           5      505799           0
</event>
<event>
      5   9999  3.79277E-02  4.65463E+01 -1.00000E+00  1.40873E-01
      21    -1     0     0   502   501  0.000000000E+00  0.000000000E+00  2.555056965E+01  2.555056965E+01  0.000000000E+00  0.00000E+00  9.000E+00
      21    -1     0     0   512   502  0.000000000E+00  0.000000000E+00 -1.965067901E+03  1.965067901E+03  0.000000000E+00  0.00000E+00  9.000E+00
      25     1     1     2     0     0  6.054518803E+01  1.197861635E+02 -9.390035684E+02  9.567482146E+02  1.250000000E+02  0.00000E+00  9.000E+00
      25     1     1     2     0     0 -1.037974195E+02 -1.369850052E+02 -7.754605712E+02  8.040540363E+02  1.250000000E+02  0.00000E+00  9.000E+00
      21     1     1     2   512   501  4.325223150E+01  1.719884163E+01 -2.250531916E+02  2.298162195E+02  2.697398305E-06  0.00000E+00  9.000E+00
#rwgt            1           1   3.4925123898486343E-002           5      506154           0
</event>
<event>
      5   9999  3.79277E-02  1.47918E+01 -1.00000E+00  1.77957E-01
      21    -1     0     0   502   501  0.000000000E+00  0.000000000E+00  1.688292203E+03  1.688292203E+03  0.000000000E+00  0.00000E+00  9.000E+00
      21    -1     0     0   511   502  0.000000000E+00  0.000000000E+00 -5.601569121E+02  5.601569121E+02  0.000000000E+00  0.00000E+00  9.000E+00
      25     1     1     2     0     0  2.934074498E+02 -2.339229131E+02  1.501272473E+03  1.552498598E+03  1.250000000E+02  0.00000E+00  9.000E+00
      25     1     1     2     0     0 -3.079603998E+02  2.365702865E+02 -9.688831379E+01  4.193059190E+02  1.250000000E+02  0.00000E+00  9.000E+00
      21     1     1     2   511   501  1.455294997E+01 -2.647373406E+00 -2.762488675E+02  2.766445983E+02  3.814697266E-06  0.00000E+00  9.000E+00
#rwgt            1           1   1.3735810192603606E-002           5      506410           0
</event>
<event>
      5   9999  3.79277E-02  5.56424E+01 -1.00000E+00  1.36477E-01
      21    -1     0     0   502   501  0.000000000E+00  0.000000000E+00  6.515604156E+02  6.515604156E+02  0.000000000E+00  0.00000E+00  9.000E+00
      21    -1     0     0   512   502  0.000000000E+00  0.000000000E+00 -4.165178923E+02  4.165178923E+02  0.000000000E+00  0.00000E+00  9.000E+00
      25     1     1     2     0     0 -6.311348175E+01 -3.434618297E+01  5.567273626E+02  5.750941907E+02  1.250000000E+02  0.00000E+00  9.000E+00
      25     1     1     2     0     0  7.564798442E+01 -1.986599290E+01  1.820290010E+01  1.485719381E+02  1.250000000E+02  0.00000E+00  9.000E+00
      21     1     1     2   512   501 -1.253450268E+01  5.421217587E+01 -3.398877394E+02  3.444121792E+02  6.607249480E-06  0.00000E+00  9.000E+00
#rwgt            1           1   3.8928265692199739E-002           5      506901           0
</event>
<event>
      5   9999  3.79277E-02  9.02454E+01 -1.00000E+00  1.25867E-01
      21    -1     0     0   502   501  0.000000000E+00  0.000000000E+00  8.388045147E+02  8.388045147E+02  0.000000000E+00  0.00000E+00  9.000E+00
      21    -1     0     0   501   511  0.000000000E+00  0.000000000E+00 -6.141947674E+02  6.141947674E+02  0.000000000E+00  0.00000E+00  9.000E+00
      25     1     1     2     0     0  1.747979252E+02 -1.508440654E+02  3.654561442E+02  4.499904889E+02  1.250000000E+02  0.00000E+00  9.000E+00
      25     1     1     2     0     0 -2.650430144E+02  1.505952670E+02  3.635327003E+02  4.906197694E+02  1.250000000E+02  0.00000E+00  9.000E+00
      21     1     1     2   502   511  9.024508928E+01  2.487984583E-01 -5.043790972E+02  5.123890238E+02  7.629394531E-06  0.00000E+00  9.000E+00
#rwgt            1           1   3.3127213741397529E-002           5      507025           0
</event>
<event>
      5   9999  3.79277E-02  1.12766E+02 -1.00000E+00  1.21526E-01
      -1    -1     0     0     0   501  0.000000000E+00  0.000000000E+00  3.162789115E+02  3.162789115E+02  0.000000000E+00  0.00000E+00  9.000E+00
      21    -1     0     0   501   502  0.000000000E+00  0.000000000E+00 -4.227071161E+02  4.227071161E+02  0.000000000E+00  0.00000E+00  9.000E+00
      25     1     1     2     0     0  1.437255092E+02 -1.297809310E+02  7.602785576E+01  2.427042375E+02  1.250000000E+02  0.00000E+00  9.000E+00
      25     1     1     2     0     0 -1.843879345E+02  2.460136939E+01 -2.718915438E+02  3.523551466E+02  1.250000000E+02  0.00000E+00  9.000E+00
      -1     1     1     2     0   502  4.066242532E+01  1.051795616E+02  8.943548339E+01  1.439266435E+02  9.536743164E-07  0.00000E+00  9.000E+00
#rwgt            1           1   7.8578725877842162E-002           5      507318           0
</event>
<event>
      5   9999  3.79277E-02  1.78110E+01 -1.00000E+00  1.70633E-01
      21    -1     0     0   511   501  0.000000000E+00  0.000000000E+00  1.299884198E+02  1.299884198E+02  0.000000000E+00  0.00000E+00  9.000E+00
      21    -1     0     0   501   502  0.000000000E+00  0.000000000E+00 -7.372802037E+02  7.372802037E+02  0.000000000E+00  0.00000E+00  9.000E+00
      25     1     1     2     0     0 -2.582776023E+02  5.460636387E+01 -2.294036067E+02  3.714030016E+02  1.250000000E+02  0.00000E+00  9.000E+00
      25     1     1     2     0     0  2.627834207E+02 -7.183805214E+01 -3.705538375E+02  4.766035862E+02  1.250000000E+02  0.00000E+00  9.000E+00
      21     1     1     2   511   502 -4.505818380E+00  1.723168827E+01 -7.334339706E+00  1.926203569E+01  4.129530925E-07  0.00000E+00  9.000E+00
#rwgt            1           1   2.6363345508552193E-002           5      507439           0
</event>
<event>
      5   9999  3.79277E-02  3.04716E+01 -1.00000E+00  1.52571E-01
      21    -1     0     0   502   512  0.000000000E+00  0.000000000E+00  6.711415985E+01  6.711415985E+01  0.000000000E+00  0.00000E+00  9.000E+00
      21    -1     0     0   501   502  0.000000000E+00  0.000000000E+00 -7.500742528E+02  7.500742528E+02  0.000000000E+00  0.00000E+00  9.000E+00
      25     1     1     2     0     0 -5.897604867E+01 -1.004884389E+02 -1.292107306E+02  2.142347161E+02  1.250000000E+02  0.00000E+00  9.000E+00
      25     1     1     2     0     0  4.142567631E+01  1.253983525E+02 -5.394890288E+02  5.693103246E+02  1.250000000E+02  0.00000E+00  9.000E+00
      21     1     1     2   501   512  1.755037237E+01 -2.490991361E+01 -1.426033360E+01  3.364337202E+01  5.591411304E-07  0.00000E+00  9.000E+00
#rwgt            1           1   2.7278450633522019E-002           5      507642           0
</event>
<event>
      5   9999  3.79277E-02  1.08015E+02 -1.00000E+00  1.22340E-01
      21    -1     0     0   502   511  0.000000000E+00  0.000000000E+00  2.290869216E+03  2.290869216E+03  0.000000000E+00  0.00000E+00  9.000E+00
      21    -1     0     0   501   502  0.000000000E+00  0.000000000E+00 -1.116563542E+02  1.116563542E+02  0.000000000E+00  0.00000E+00  9.000E+00
      25     1     1     2     0     0  1.467600319E+02 -8.574171920E+01  3.654323810E+02  4.219667931E+02  1.250000000E+02  0.00000E+00  9.000E+00
      25     1     1     2     0     0 -9.850501171E+01 -1.089549841E+01 -4.000749664E+00  1.595711603E+02  1.250000000E+02  0.00000E+00  9.000E+00
      21     1     1     2   501   511 -4.825502018E+01  9.663721761E+01  1.817781230E+03  1.820987617E+03  0.000000000E+00  0.00000E+00  9.000E+00
#rwgt            1           1   3.3403395559636985E-002           5      507920           0
</event>
<event>
      5   9999  3.79277E-02  5.92076E+01 -1.00000E+00  1.35013E-01
      21    -1     0     0   502   501  0.000000000E+00  0.000000000E+00  2.667146389E+03  2.667146389E+03  0.000000000E+00  0.00000E+00  9.000E+00
      21    -1     0     0   501   512  0.000000000E+00  0.000000000E+00 -2.411702466E+01  2.411702466E+01  0.000000000E+00  0.00000E+00  9.000E+00
      25     1     1     2     0     0  1.772120555E+02  9.289170033E+01  9.688042138E+02  9.971156328E+02  1.250000000E+02  0.00000E+00  9.000E+00
      25     1     1     2     0     0 -1.181721009E+02 -9.734392997E+01  1.373649385E+03  1.387796137E+03  1.250000000E+02  0.00000E+00  9.000E+00
      21     1     1     2   502   512 -5.903995456E+01  4.452229640E+00  3.005757663E+02  3.063516441E+02  3.814697266E-06  0.00000E+00  9.000E+00
#rwgt            1           1   8.0806869856025143E-002           5      507969           0
</event>
<event>
      5   9999  3.79277E-02  2.84401E+01 -1.00000E+00  1.54668E-01
      21    -1     0     0   502   511  0.000000000E+00  0.000000000E+00  3.755622810E+02  3.755622810E+02  0.000000000E+00  0.00000E+00  9.000E+00
      21    -1     0     0   501   502  0.000000000E+00  0.000000000E+00 -2.761666578E+02  2.761666578E+02  0.000000000E+00  0.00000E+00  9.000E+00
      25     1     1     2     0     0 -2.236943416E+02  5.730417211E+01  9.926394870E+01  2.807156178E+02  1.250000000E+02  0.00000E+00  9.000E+00
      25     1     1     2     0     0  2.384358248E+02 -3.298279065E+01 -8.260266018E+01  2.835272589E+02  1.250000000E+02  0.00000E+00  9.000E+00
      21     1     1     2   501   511 -1.474148329E+01 -2.432138146E+01  8.273433471E+01  8.748606212E+01  9.536743164E-07  0.00000E+00  9.000E+00
#rwgt            1           1   1.5249822272947621E-002           5      508107           0
</event>
<event>
      5   9999  3.79277E-02  1.84812E+01 -1.00000E+00  1.69250E-01
      21    -1     0     0   502   501  0.000000000E+00  0.000000000E+00  3.063306882E+02  3.063306882E+02  0.000000000E+00  0.00000E+00  9.000E+00
      21    -1     0     0   512   502  0.000000000E+00  0.000000000E+00 -2.596047244E+02  2.596047244E+02  0.000000000E+00  0.00000E+00  9.000E+00
      25     1     1     2     0     0  1.881602700E+02  7.334528718E+01  1.430083787E+02  2.772367485E+02  1.250000000E+02  0.00000E+00  9.000E+00
      25     1     1     2     0     0 -2.033082330E+02 -8.393281089E+01 -8.426728710E+01  2.666550769E+02  1.250000000E+02  0.00000E+00  9.000E+00
      21     1     1     2   512   501  1.514796303E+01  1.058752371E+01 -1.201512773E+01  2.204358720E+01  2.384185791E-07  0.00000E+00  9.000E+00
#rwgt            1           1   3.9656901023906697E-002           5      508314           0
</event>
<event>
      5   9999 -3.79277E-02  7.88125E+01 -1.00000E+00  1.28665E-01
      21    -1     0     0   502   511  0.000000000E+00  0.000000000E+00  4.529098797E+02  4.529098797E+02  0.000000000E+00  0.00000E+00  9.000E+00
      21    -1     0     0   501   502  0.000000000E+00  0.000000000E+00 -1.386975984E+02  1.386975984E+02  0.000000000E+00  0.00000E+00  9.000E+00
      25     1     1     2     0     0  1.339079159E+01  1.458211221E+02  2.556474129E+02  3.200370489E+02  1.250000000E+02  0.00000E+00  9.000E+00
      25     1     1     2     0     0 -6.433158109E+01 -8.568420500E+01 -1.295297562E+01  1.651457383E+02  1.250000000E+02  0.00000E+00  9.000E+00
      21     1     1     2   501   511  5.094078949E+01 -6.013691707E+01  7.151784396E+01  1.064246909E+02  1.651812370E-06  0.00000E+00  9.000E+00
#rwgt            1           1  -4.7556179556813759E-002           5      508593           0
</event>
<event>
      5   9999  3.79277E-02  1.42032E+02 -1.00000E+00  1.17341E-01
      21    -1     0     0   502   501  0.000000000E+00  0.000000000E+00  5.479925972E+02  5.479925972E+02  0.000000000E+00  0.00000E+00  9.000E+00
      21    -1     0     0   501   512  0.000000000E+00  0.000000000E+00 -3.395618089E+02  3.395618089E+02  0.000000000E+00  0.00000E+00  9.000E+00
      25     1     1     2     0     0 -1.643609304E+02  3.546818151E+00  2.314674463E+02  3.102084365E+02  1.250000000E+02  0.00000E+00  9.000E+00
      25     1     1     2     0     0  2.179232681E+02  1.279984241E+02  1.763353452E+02  3.325557116E+02  1.250000000E+02  0.00000E+00  9.000E+00
      21     1     1     2   502   512 -5.356233766E+01 -1.315452422E+02 -1.993720032E+02  2.447902581E+02  2.697398305E-06  0.00000E+00  9.000E+00
#rwgt            2          11   2.4600920466511926E-003           5      508893           0
</event>
<event>
      5   9999  3.79277E-02  1.47751E+02 -1.00000E+00  1.16654E-01
      21    -1     0     0   502   511  0.000000000E+00  0.000000000E+00  2.584714236E+02  2.584714236E+02  0.000000000E+00  0.00000E+00  9.000E+00
      21    -1     0     0   501   502  0.000000000E+00  0.000000000E+00 -4.107033775E+02  4.107033775E+02  0.000000000E+00  0.00000E+00  9.000E+00
      25     1     1     2     0     0  1.066583508E+00  1.149798076E+00 -2.690593058E+02  2.966822706E+02  1.250000000E+02  0.00000E+00  9.000E+00
      25     1     1     2     0     0  1.258801518E+02 -7.674581059E+01  1.146337582E+02  2.247256785E+02  1.250000000E+02  0.00000E+00  9.000E+00
      21     1     1     2   501   511 -1.269467353E+02  7.559601252E+01  2.193593672E+00  1.477668521E+02  2.401445914E-06  0.00000E+00  9.000E+00
#rwgt            2          11   2.5489551525664437E-003           5      508958           0
</event>
<event>
      5   9999  3.79277E-02  1.03515E+02 -1.00000E+00  1.23157E-01
      21    -1     0     0   502   501  0.000000000E+00  0.000000000E+00  2.239194457E+03  2.239194457E+03  0.000000000E+00  0.00000E+00  9.000E+00
      21    -1     0     0   512   502  0.000000000E+00  0.000000000E+00 -4.490854756E+01  4.490854756E+01  0.000000000E+00  0.00000E+00  9.000E+00
      25     1     1     2     0     0 -8.652805658E+01 -2.863403494E+01  4.334907454E+02  4.602675731E+02  1.250000000E+02  0.00000E+00  9.000E+00
      25     1     1     2     0     0  1.884997101E+02  4.644394166E+01  1.670770389E+03  1.686649897E+03  1.250000000E+02  0.00000E+00  9.000E+00
      21     1     1     2   512   501 -1.019716535E+02 -1.780990672E+01  9.002477512E+01  1.371855351E+02  2.336015456E-06  0.00000E+00  9.000E+00
#rwgt            1           1   9.8197973634828836E-002           5      509038           0
</event>
<event>
      5   9999  3.79277E-02  2.58697E+01 -1.00000E+00  1.57646E-01
      21    -1     0     0   502   501  0.000000000E+00  0.000000000E+00  1.037482777E+02  1.037482777E+02  0.000000000E+00  0.00000E+00  9.000E+00
      21    -1     0     0   501   511  0.000000000E+00  0.000000000E+00 -6.737483890E+02  6.737483890E+02  0.000000000E+00  0.00000E+00  9.000E+00
      25     1     1     2     0     0  1.363172432E+02  7.390398580E+01 -5.192572578E+01  2.058287417E+02  1.250000000E+02  0.00000E+00  9.000E+00
      25     1     1     2     0     0 -1.109932485E+02 -6.861844613E+01 -2.869931104E+02  3.391430933E+02  1.250000000E+02  0.00000E+00  9.000E+00
      21     1     1     2   502   511 -2.532399471E+01 -5.285539671E+00 -2.310812751E+02  2.325248316E+02  2.697398305E-06  0.00000E+00  9.000E+00
#rwgt            1           1   4.1758683581580705E-002           5      509097           0
</event>
<event>
      5   9999  3.79277E-02  5.50038E+01 -1.00000E+00  1.36753E-01
      21    -1     0     0   512   501  0.000000000E+00  0.000000000E+00  7.380390214E+02  7.380390214E+02  0.000000000E+00  0.00000E+00  9.000E+00
      21    -1     0     0   501   502  0.000000000E+00  0.000000000E+00 -1.199743448E+02  1.199743448E+02  0.000000000E+00  0.00000E+00  9.000E+00
      25     1     1     2     0     0  1.312059442E+02  1.516415399E+01 -1.162443813E+00  1.818551694E+02  1.250000000E+02  0.00000E+00  9.000E+00
      25     1     1     2     0     0 -1.526527060E+02  3.548617948E+01  3.688081451E+02  4.197696577E+02  1.250000000E+02  0.00000E+00  9.000E+00
      21     1     1     2   512   502  2.144676175E+01 -5.065033347E+01  2.504189753E+02  2.563885392E+02  2.697398305E-06  0.00000E+00  9.000E+00
#rwgt            1           1   3.4995265715534234E-002           5      509243           0
</event>
<event>
      5   9999  3.79277E-02  4.31173E+01 -1.00000E+00  1.42847E-01
      21    -1     0     0   502   501  0.000000000E+00  0.000000000E+00  1.334966611E+03  1.334966611E+03  0.000000000E+00  0.00000E+00  9.000E+00
      21    -1     0     0   501   511  0.000000000E+00  0.000000000E+00 -1.656268577E+02  1.656268577E+02  0.000000000E+00  0.00000E+00  9.000E+00
      25     1     1     2     0     0  1.408443513E+02 -2.375255119E+02  2.825563331E+02  4.143894080E+02  1.250000000E+02  0.00000E+00  9.000E+00
      25     1     1     2     0     0 -1.832869767E+02  2.299278271E+02  9.541476993E+02  1.006222517E+03  1.250000000E+02  0.00000E+00  9.000E+00
      21     1     1     2   502   511  4.244262541E+01  7.597684831E+00 -6.736427900E+01  7.998154382E+01  1.348699152E-06  0.00000E+00  9.000E+00
#rwgt            1           1   2.8630711525226608E-002           5      509424           0
</event>
<event>
      5   9999  3.79277E-02  4.68949E+00 -1.00000E+00  2.48191E-01
      21    -1     0     0   502   501  0.000000000E+00  0.000000000E+00  1.607923920E+03  1.607923920E+03  0.000000000E+00  0.00000E+00  9.000E+00
      21    -1     0     0   512   502  0.000000000E+00  0.000000000E+00 -2.656019605E+01  2.656019605E+01  0.000000000E+00  0.00000E+00  9.000E+00
      25     1     1     2     0     0  1.141653275E+02 -1.467077658E+01  1.198004395E+03  1.209995241E+03  1.250000000E+02  0.00000E+00  9.000E+00
      25     1     1     2     0     0 -1.170287606E+02  1.095701188E+01  3.831264639E+02  4.197936091E+02  1.250000000E+02  0.00000E+00  9.000E+00
      21     1     1     2   512   501  2.863433112E+00  3.713764703E+00  2.328656205E-01  4.695266111E+00  1.603173822E-07  0.00000E+00  9.000E+00
#rwgt            1           1   3.0191995255485139E-002           5      509615           0
</event>
<event>
      5   9999  3.79277E-02  3.08304E+01 -1.00000E+00  1.52221E-01
      21    -1     0     0   502   501  0.000000000E+00  0.000000000E+00  4.962995471E+01  4.962995471E+01  0.000000000E+00  0.00000E+00  9.000E+00
       1    -1     0     0   501     0  0.000000000E+00  0.000000000E+00 -1.993053537E+03  1.993053537E+03  0.000000000E+00  0.00000E+00  9.000E+00
      25     1     1     2     0     0  1.670977547E+02  1.088152746E+02 -4.311164500E+02  4.911708634E+02  1.250000000E+02  0.00000E+00  9.000E+00
      25     1     1     2     0     0 -1.583489481E+02 -7.925222788E+01 -5.877668019E+02  6.264583932E+02  1.250000000E+02  0.00000E+00  9.000E+00
       1     1     1     2   502     0 -8.748806693E+00 -2.956304667E+01 -9.245403304E+02  9.250542351E+02  0.000000000E+00  0.00000E+00  9.000E+00
#rwgt            1           1   4.0125859974891764E-002           5      510020           0
</event>
<event>
      5   9999  3.79277E-02  1.69885E+01 -1.00000E+00  1.72437E-01
      21    -1     0     0   502   511  0.000000000E+00  0.000000000E+00  4.694774323E+02  4.694774323E+02  0.000000000E+00  0.00000E+00  9.000E+00
      21    -1     0     0   501   502  0.000000000E+00  0.000000000E+00 -1.064861080E+02  1.064861080E+02  0.000000000E+00  0.00000E+00  9.000E+00
      25     1     1     2     0     0 -8.193120966E+01 -1.361910375E+02  1.571186398E+02  2.560702809E+02  1.250000000E+02  0.00000E+00  9.000E+00
      25     1     1     2     0     0  9.890063183E+01  1.369954542E+02  1.416307269E+02  2.534429960E+02  1.250000000E+02  0.00000E+00  9.000E+00
      21     1     1     2   501   511 -1.696942218E+01 -8.044166647E-01  6.424195762E+01  6.645026331E+01  9.536743164E-07  0.00000E+00  9.000E+00
#rwgt            1           1   8.2600512612799978E-002           5      510136           0
</event>
<event>
      5   9999  3.79277E-02  1.21444E+01 -1.00000E+00  1.86484E-01
      21    -1     0     0   512   501  0.000000000E+00  0.000000000E+00  4.563002973E+02  4.563002973E+02  0.000000000E+00  0.00000E+00  9.000E+00
      21    -1     0     0   501   502  0.000000000E+00  0.000000000E+00 -1.283210118E+02  1.283210118E+02  0.000000000E+00  0.00000E+00  9.000E+00
      25     1     1     2     0     0 -1.417912726E+02  1.318577825E+02  1.689547141E+02  2.857655249E+02  1.250000000E+02  0.00000E+00  9.000E+00
      25     1     1     2     0     0  1.422956249E+02 -1.439916765E+02  1.393254847E+02  2.757140520E+02  1.250000000E+02  0.00000E+00  9.000E+00
      21     1     1     2   512   502 -5.043522989E-01  1.213389397E+01  1.969908664E+01  2.314173219E+01  2.384185791E-07  0.00000E+00  9.000E+00
#rwgt            1           1   3.3385439150712903E-002           5      510450           0
</event>
<event>
      5   9999  3.79277E-02  4.54294E+01 -1.00000E+00  1.41493E-01
      21    -1     0     0   502   501  0.000000000E+00  0.000000000E+00  7.324191995E+01  7.324191995E+01  0.000000000E+00  0.00000E+00  9.000E+00
      21    -1     0     0   511   502  0.000000000E+00  0.000000000E+00 -5.616848568E+02  5.616848568E+02  0.000000000E+00  0.00000E+00  9.000E+00
      25     1     1     2     0     0  7.242927234E+01  1.465080312E+01 -3.118272313E+02  3.439794583E+02  1.250000000E+02  0.00000E+00  9.000E+00
      25     1     1     2     0     0 -1.030358783E+02  1.892100106E+01 -7.474335696E+01  1.794044757E+02  1.250000000E+02  0.00000E+00  9.000E+00
      21     1     1     2   511   501  3.060660599E+01 -3.357180418E+01 -1.018723486E+02  1.115428428E+02  1.907348633E-06  0.00000E+00  9.000E+00
#rwgt            1           1   4.0066471423584958E-002           5      510781           0
</event>
<event>
      5   9999 -4.45195E-02  7.48760E+01 -1.00000E+00  1.29757E-01
      21    -1     0     0   502   501  0.000000000E+00  0.000000000E+00  1.100619290E+03  1.100619290E+03  0.000000000E+00  0.00000E+00  9.000E+00
      21    -1     0     0   512   502  0.000000000E+00  0.000000000E+00 -1.075735566E+02  1.075735566E+02  0.000000000E+00  0.00000E+00  9.000E+00
      25     1     1     2     0     0 -1.781609863E+02  1.250916682E+02  1.624059139E+02  2.989815101E+02  1.250000000E+02  0.00000E+00  9.000E+00
      25     1     1     2     0     0  1.930616814E+02 -5.171330777E+01  7.891518074E+02  8.236095277E+02  1.250000000E+02  0.00000E+00  9.000E+00
      21     1     1     2   512   501 -1.490069510E+01 -7.337836040E+01  4.148801184E+01  8.560180848E+01  1.430511475E-06  0.00000E+00  9.000E+00
#rwgt            1           1 -0.57855465448542809                5      510908           0
</event>
<event>
      5   9999  3.79277E-02  2.55588E+01 -1.00000E+00  1.58035E-01
      21    -1     0     0   511   501  0.000000000E+00  0.000000000E+00  1.363934609E+03  1.363934609E+03  0.000000000E+00  0.00000E+00  9.000E+00
      21    -1     0     0   501   502  0.000000000E+00  0.000000000E+00 -4.320830632E+01  4.320830632E+01  0.000000000E+00  0.00000E+00  9.000E+00
      25     1     1     2     0     0 -9.770914328E+01  1.551401983E+02  5.400384922E+02  5.838511205E+02  1.250000000E+02  0.00000E+00  9.000E+00
      25     1     1     2     0     0  8.627993026E+01 -1.780012090E+02  6.698081502E+02  7.095044855E+02  1.250000000E+02  0.00000E+00  9.000E+00
      21     1     1     2   511   502  1.142921302E+01  2.286101066E+01  1.108796600E+02  1.137873092E+02  1.348699152E-06  0.00000E+00  9.000E+00
#rwgt            1           1   3.4418221366129861E-002           5      511009           0
</event>
<event>
      5   9999  3.79277E-02  1.29433E+01 -1.00000E+00  1.83638E-01
      21    -1     0     0   502   501  0.000000000E+00  0.000000000E+00  7.783936487E+01  7.783936487E+01  0.000000000E+00  0.00000E+00  9.000E+00
      21    -1     0     0   501   512  0.000000000E+00  0.000000000E+00 -7.890997270E+02  7.890997270E+02  0.000000000E+00  0.00000E+00  9.000E+00
      25     1     1     2     0     0  9.548697611E+01 -4.520069509E+01 -3.194180339E+02  3.589063191E+02  1.250000000E+02  0.00000E+00  9.000E+00
      25     1     1     2     0     0 -1.081020934E+02  4.230466151E+01 -6.754142241E+01  1.834736785E+02  1.250000000E+02  0.00000E+00  9.000E+00
      21     1     1     2   502   512  1.261511725E+01  2.896033575E+00 -3.243009058E+02  3.245590943E+02  3.814697266E-06  0.00000E+00  9.000E+00
#rwgt            1           1   4.0601303103328421E-002           5      511143           0
</event>
<event>
      5   9999  3.79277E-02  5.79405E+01 -1.00000E+00  1.35519E-01
       2    -1     0     0   502     0  0.000000000E+00  0.000000000E+00  3.332527236E+03  3.332527236E+03  0.000000000E+00  0.00000E+00  9.000E+00
      21    -1     0     0   501   502  0.000000000E+00  0.000000000E+00 -1.037003948E+02  1.037003948E+02  0.000000000E+00  0.00000E+00  9.000E+00
      25     1     1     2     0     0 -3.320847661E+02 -5.330571972E+01  6.870944491E+02  7.751422925E+02  1.250000000E+02  0.00000E+00  9.000E+00
      25     1     1     2     0     0  3.641975613E+02  5.078399490E+00  5.664295463E+02  6.849329052E+02  1.250000000E+02  0.00000E+00  9.000E+00
       2     1     1     2   501     0 -3.211279518E+01  4.822732023E+01  1.975302846E+03  1.976152433E+03  2.157918644E-05  0.00000E+00  9.000E+00
#rwgt            1           1   3.5065959176744543E-002           5      511423           0
</event>
<event>
      5   9999  3.79277E-02  6.37004E+01 -1.00000E+00  1.33329E-01
      -2    -1     0     0     0   501  0.000000000E+00  0.000000000E+00  1.428466335E+03  1.428466335E+03  0.000000000E+00  0.00000E+00  9.000E+00
      21    -1     0     0   501   502  0.000000000E+00  0.000000000E+00 -8.448600195E+01  8.448600195E+01  0.000000000E+00  0.00000E+00  9.000E+00
      25     1     1     2     0     0 -1.881113867E+02 -2.837644692E+01  1.526451602E+02  2.740741898E+02  1.250000000E+02  0.00000E+00  9.000E+00
      25     1     1     2     0     0  1.325602918E+02 -2.797492309E+00  3.451557606E+02  3.903044402E+02  1.250000000E+02  0.00000E+00  9.000E+00
      -2     1     1     2     0   502  5.555109493E+01  3.117393923E+01  8.461794118E+02  8.485737066E+02  1.078959322E-05  0.00000E+00  9.000E+00
#rwgt            1           1   4.7994901825554992E-002           5      511543           0
</event>
<event>
      5   9999  3.79277E-02  7.68411E+01 -1.00000E+00  1.29202E-01
      21    -1     0     0   511   501  0.000000000E+00  0.000000000E+00  3.252971070E+03  3.252971070E+03  0.000000000E+00  0.00000E+00  9.000E+00
      21    -1     0     0   501   502  0.000000000E+00  0.000000000E+00 -1.595281550E+02  1.595281550E+02  0.000000000E+00  0.00000E+00  9.000E+00
      25     1     1     2     0     0 -1.040902375E+02  1.652900279E+02 -5.752796398E+01  2.389352161E+02  1.250000000E+02  0.00000E+00  9.000E+00
      25     1     1     2     0     0  4.888053908E+01 -2.187356720E+02  1.579232579E+03  1.599948480E+03  1.250000000E+02  0.00000E+00  9.000E+00
      21     1     1     2   511   502  5.520969844E+01  5.344564413E+01  1.571738300E+03  1.573615529E+03  0.000000000E+00  0.00000E+00  9.000E+00
#rwgt            1           1  0.10330676859582411                5      511595           0
</event>
<event>
      5   9999  3.79277E-02  3.53051E+01 -1.00000E+00  1.48285E-01
      21    -1     0     0   502   501  0.000000000E+00  0.000000000E+00  3.192550638E+02  3.192550638E+02  0.000000000E+00  0.00000E+00  9.000E+00
      21    -1     0     0   512   502  0.000000000E+00  0.000000000E+00 -3.154931898E+02  3.154931898E+02  0.000000000E+00  0.00000E+00  9.000E+00
      25     1     1     2     0     0 -1.728756258E+02 -1.425696985E+02 -3.342647651E+01  2.587555415E+02  1.250000000E+02  0.00000E+00  9.000E+00
      25     1     1     2     0     0  1.375863754E+02  1.415105073E+02  1.365098131E+02  2.705830066E+02  1.250000000E+02  0.00000E+00  9.000E+00
      21     1     1     2   512   501  3.528925041E+01  1.059191195E+00 -9.932146261E+01  1.054097055E+02  1.907348633E-06  0.00000E+00  9.000E+00
#rwgt            1           1   3.6604632252329808E-002           5      511742           0
</event>
<event>
      5   9999  3.79277E-02  3.83286E+01 -1.00000E+00  1.45999E-01
      21    -1     0     0   511   501  0.000000000E+00  0.000000000E+00  2.986428171E+02  2.986428171E+02  0.000000000E+00  0.00000E+00  9.000E+00
      21    -1     0     0   501   502  0.000000000E+00  0.000000000E+00 -1.429133253E+02  1.429133253E+02  0.000000000E+00  0.00000E+00  9.000E+00
      25     1     1     2     0     0 -9.366514121E+01 -6.448398832E+00  1.079125073E+02  1.899601268E+02  1.250000000E+02  0.00000E+00  9.000E+00
      25     1     1     2     0     0  1.229649167E+02  3.115886852E+01 -1.423750129E+01  1.786587593E+02  1.250000000E+02  0.00000E+00  9.000E+00
      21     1     1     2   511   502 -2.929977549E+01 -2.471046969E+01  6.205448576E+01  7.293725632E+01  0.000000000E+00  0.00000E+00  9.000E+00
#rwgt            1           1   3.3622299308527517E-002           5      511921           0
</event>
<event>
      5   9999  3.79277E-02  2.52489E+01 -1.00000E+00  1.58429E-01
      21    -1     0     0   512   501  0.000000000E+00  0.000000000E+00  1.009002327E+02  1.009002327E+02  0.000000000E+00  0.00000E+00  9.000E+00
      21    -1     0     0   501   502  0.000000000E+00  0.000000000E+00 -1.286205919E+03  1.286205919E+03  0.000000000E+00  0.00000E+00  9.000E+00
      25     1     1     2     0     0  3.029718076E+01  1.425584407E+02 -4.042416171E+02  4.475233102E+02  1.250000000E+02  0.00000E+00  9.000E+00
      25     1     1     2     0     0 -4.438185305E+01 -1.216030882E+02 -8.486060480E+02  8.674758121E+02  1.250000000E+02  0.00000E+00  9.000E+00
      21     1     1     2   512   502  1.408467228E+01 -2.095535252E+01  6.754197874E+01  7.210702937E+01  2.336015456E-06  0.00000E+00  9.000E+00
#rwgt            1           1   3.7236220149811858E-002           5      512041           0
</event>
<event>
      5   9999  3.79277E-02  9.66615E+01 -1.00000E+00  1.24495E-01
      21    -1     0     0   511   501  0.000000000E+00  0.000000000E+00  2.495330211E+02  2.495330211E+02  0.000000000E+00  0.00000E+00  9.000E+00
      21    -1     0     0   501   502  0.000000000E+00  0.000000000E+00 -3.644545564E+02  3.644545564E+02  0.000000000E+00  0.00000E+00  9.000E+00
      25     1     1     2     0     0  8.027326726E+01 -1.189491163E+02 -1.370004727E+02  2.344926848E+02  1.250000000E+02  0.00000E+00  9.000E+00
      25     1     1     2     0     0 -5.286179483E+01  2.625571800E+01 -1.361835813E+02  1.940481896E+02  1.250000000E+02  0.00000E+00  9.000E+00
      21     1     1     2   511   502 -2.741147243E+01  9.269339828E+01  1.582625186E+02  1.854467031E+02  0.000000000E+00  0.00000E+00  9.000E+00
#rwgt            1           1   4.0525987065732766E-002           5      512230           0
</event>
<event>
      5   9999  3.79277E-02  1.07680E+01 -1.00000E+00  1.92114E-01
      21    -1     0     0   502   501  0.000000000E+00  0.000000000E+00  1.154238622E+03  1.154238622E+03  0.000000000E+00  0.00000E+00  9.000E+00
      21    -1     0     0   501   512  0.000000000E+00  0.000000000E+00 -3.745477783E+01  3.745477783E+01  0.000000000E+00  0.00000E+00  9.000E+00
      25     1     1     2     0     0 -8.388786852E+01  4.785841976E+01  9.301516369E+02  9.434694857E+02  1.250000000E+02  0.00000E+00  9.000E+00
      25     1     1     2     0     0  7.929944651E+01 -3.811694821E+01  1.754681942E+02  2.327131091E+02  1.250000000E+02  0.00000E+00  9.000E+00
      21     1     1     2   502   512  4.588422007E+00 -9.741471556E+00  1.116401292E+01  1.551080492E+01  2.665600750E-07  0.00000E+00  9.000E+00
#rwgt            1           1   5.0937126953001850E-002           5      512290           0
</event>
<event>
      5   9999  3.79277E-02  2.47423E+01 -1.00000E+00  1.59089E-01
       2    -1     0     0   502     0  0.000000000E+00  0.000000000E+00  4.169664884E+02  4.169664884E+02  0.000000000E+00  0.00000E+00  9.000E+00
      21    -1     0     0   501   502  0.000000000E+00  0.000000000E+00 -3.467187371E+02  3.467187371E+02  0.000000000E+00  0.00000E+00  9.000E+00
      25     1     1     2     0     0  1.252168858E+01  1.483938991E+02 -2.816584261E+02  3.422484637E+02  1.250000000E+02  0.00000E+00  9.000E+00
      25     1     1     2     0     0 -1.050445619E+01 -1.237339249E+02  1.959011475E+02  2.634818540E+02  1.250000000E+02  0.00000E+00  9.000E+00
       2     1     1     2   501     0 -2.017232387E+00 -2.465997422E+01  1.560050299E+02  1.579549078E+02  2.697398305E-06  0.00000E+00  9.000E+00
#rwgt            1           1   3.8963743624088533E-002           5      512600           0
</event>
<event>
      5   9999  3.79277E-02  1.43514E+01 -1.00000E+00  1.79211E-01
      21    -1     0     0   511   501  0.000000000E+00  0.000000000E+00  3.956665852E+02  3.956665852E+02  0.000000000E+00  0.00000E+00  9.000E+00
      21    -1     0     0   501   502  0.000000000E+00  0.000000000E+00 -2.016712093E+02  2.016712093E+02  0.000000000E+00  0.00000E+00  9.000E+00
      25     1     1     2     0     0  9.373462319E+01  1.941719771E+02 -3.983809527E+01  2.523905904E+02  1.250000000E+02  0.00000E+00  9.000E+00
      25     1     1     2     0     0 -8.439904018E+01 -1.832719885E+02  2.089554502E+02  3.162265010E+02  1.250000000E+02  0.00000E+00  9.000E+00
      21     1     1     2   511   502 -9.335583010E+00 -1.089998861E+01  2.487802096E+01  2.872070314E+01  3.371747881E-07  0.00000E+00  9.000E+00
#rwgt            1           1   2.8899249972671341E-002           5      512845           0
</event>
<event>
      5   9999  3.79277E-02  3.18816E+01 -1.00000E+00  1.51227E-01
       1    -1     0     0   502     0  0.000000000E+00  0.000000000E+00  2.031491653E+03  2.031491653E+03  0.000000000E+00  0.00000E+00  9.000E+00
      21    -1     0     0   501   502  0.000000000E+00  0.000000000E+00 -4.723015718E+01  4.723015718E+01  0.000000000E+00  0.00000E+00  9.000E+00
      25     1     1     2     0     0 -1.241527515E+02 -3.558734000E+01  2.204357825E+02  2.844245044E+02  1.250000000E+02  0.00000E+00  9.000E+00
      25     1     1     2     0     0  9.642437882E+01  5.132184016E+01  4.429065196E+02  4.729934220E+02  1.250000000E+02  0.00000E+00  9.000E+00
       1     1     1     2   501     0  2.772837272E+01 -1.573450016E+01  1.320919194E+03  1.321303884E+03  1.525878906E-05  0.00000E+00  9.000E+00
#rwgt            1           1   3.3958218630245861E-002           5      513037           0
</event>
<event>
      5   9999  3.79277E-02  2.54737E+01 -1.00000E+00  1.58143E-01
      21    -1     0     0   502   501  0.000000000E+00  0.000000000E+00  2.229567563E+02  2.229567563E+02  0.000000000E+00  0.00000E+00  9.000E+00
      21    -1     0     0   501   511  0.000000000E+00  0.000000000E+00 -3.863596985E+02  3.863596985E+02  0.000000000E+00  0.00000E+00  9.000E+00
      25     1     1     2     0     0  4.976550096E+01  1.859876650E+02  4.455621763E+01  2.338338580E+02  1.250000000E+02  0.00000E+00  9.000E+00
      25     1     1     2     0     0 -6.332117073E+01 -1.644202896E+02 -5.841958533E+01  2.237888519E+02  1.250000000E+02  0.00000E+00  9.000E+00
      21     1     1     2   502   511  1.355566977E+01 -2.156737546E+01 -1.495395745E+02  1.516937448E+02  1.907348633E-06  0.00000E+00  9.000E+00
#rwgt            1           1   5.5744437492816677E-002           5      513190           0
</event>
<event>
      5   9999  3.79277E-02  3.53672E+01 -1.00000E+00  1.48236E-01
      21    -1     0     0   512   501  0.000000000E+00  0.000000000E+00  2.065272828E+02  2.065272828E+02  0.000000000E+00  0.00000E+00  9.000E+00
      21    -1     0     0   501   502  0.000000000E+00  0.000000000E+00 -4.228047539E+02  4.228047539E+02  0.000000000E+00  0.00000E+00  9.000E+00
      25     1     1     2     0     0  7.871056634E+01 -2.134610819E+02 -2.421008019E+02  3.549630756E+02  1.250000000E+02  0.00000E+00  9.000E+00
      25     1     1     2     0     0 -8.517771565E+01  1.786902208E+02  6.810794573E+00  2.342153393E+02  1.250000000E+02  0.00000E+00  9.000E+00
      21     1     1     2   512   502  6.467149309E+00  3.477086115E+01  1.901253621E+01  4.015362174E+01  3.371747881E-07  0.00000E+00  9.000E+00
#rwgt            1           1   4.2766348197479515E-002           5      513451           0
</event>
<event>
      5   9999  3.79277E-02  8.67445E+01 -1.00000E+00  1.26671E-01
      21    -1     0     0   502   501  0.000000000E+00  0.000000000E+00  4.893407316E+02  4.893407316E+02  0.000000000E+00  0.00000E+00  9.000E+00
      21    -1     0     0   501   511  0.000000000E+00  0.000000000E+00 -2.448360149E+02  2.448360149E+02  0.000000000E+00  0.00000E+00  9.000E+00
      25     1     1     2     0     0 -2.975084651E+02 -1.020247767E+02  1.464996263E+02  3.687919229E+02  1.250000000E+02  0.00000E+00  9.000E+00
      25     1     1     2     0     0  2.123759145E+02  8.537988891E+01  9.809264151E+01  2.786403072E+02  1.250000000E+02  0.00000E+00  9.000E+00
      21     1     1     2   502   511  8.513255059E+01  1.664488781E+01 -8.755109242E-02  8.674451640E+01  1.480961327E-06  0.00000E+00  9.000E+00
#rwgt            1           1   2.7656631094859382E-002           5      513690           0
</event>
</LesHouchesEvents>
 #Random number generator exit values:            5        513763             0
